 Entering Gaussian System, Link 0=/home/user/opt/gaussian/g16/g16
 Input=AM1Anharm.com
 Output=AM1Anharm.log
 Initial command:
 /home/user/opt/gaussian/g16/l1.exe "/home/user/opt/gaussian/newcalc/Gau-5347.inp" -scrdir="/home/user/opt/gaussian/newcalc/"
 Entering Link 1 = /home/user/opt/gaussian/g16/l1.exe PID=      5350.
  
 Copyright (c) 1988,1990,1992,1993,1995,1998,2003,2009,2016,
            Gaussian, Inc.  All Rights Reserved.
  
 This is part of the Gaussian(R) 16 program.  It is based on
 the Gaussian(R) 09 system (copyright 2009, Gaussian, Inc.),
 the Gaussian(R) 03 system (copyright 2003, Gaussian, Inc.),
 the Gaussian(R) 98 system (copyright 1998, Gaussian, Inc.),
 the Gaussian(R) 94 system (copyright 1995, Gaussian, Inc.),
 the Gaussian 92(TM) system (copyright 1992, Gaussian, Inc.),
 the Gaussian 90(TM) system (copyright 1990, Gaussian, Inc.),
 the Gaussian 88(TM) system (copyright 1988, Gaussian, Inc.),
 the Gaussian 86(TM) system (copyright 1986, Carnegie Mellon
 University), and the Gaussian 82(TM) system (copyright 1983,
 Carnegie Mellon University). Gaussian is a federally registered
 trademark of Gaussian, Inc.
  
 This software contains proprietary and confidential information,
 including trade secrets, belonging to Gaussian, Inc.
  
 This software is provided under written license and may be
 used, copied, transmitted, or stored only in accord with that
 written license.
  
 The following legend is applicable only to US Government
 contracts under FAR:
  
                    RESTRICTED RIGHTS LEGEND
  
 Use, reproduction and disclosure by the US Government is
 subject to restrictions as set forth in subparagraphs (a)
 and (c) of the Commercial Computer Software - Restricted
 Rights clause in FAR 52.227-19.
  
 Gaussian, Inc.
 340 Quinnipiac St., Bldg. 40, Wallingford CT 06492
  
  
 ---------------------------------------------------------------
 Warning -- This program may not be used in any manner that
 competes with the business of Gaussian, Inc. or will provide
 assistance to any competitor of Gaussian, Inc.  The licensee
 of this program is prohibited from giving any competitor of
 Gaussian, Inc. access to this program.  By using this program,
 the user acknowledges that Gaussian, Inc. is engaged in the
 business of creating and licensing software in the field of
 computational chemistry and represents and warrants to the
 licensee that it is not a competitor of Gaussian, Inc. and that
 it will not use this program in any manner prohibited above.
 ---------------------------------------------------------------
  

 Cite this work as:
 Gaussian 16, Revision A.03,
 M. J. Frisch, G. W. Trucks, H. B. Schlegel, G. E. Scuseria, 
 M. A. Robb, J. R. Cheeseman, G. Scalmani, V. Barone, 
 G. A. Petersson, H. Nakatsuji, X. Li, M. Caricato, A. V. Marenich, 
 J. Bloino, B. G. Janesko, R. Gomperts, B. Mennucci, H. P. Hratchian, 
 J. V. Ortiz, A. F. Izmaylov, J. L. Sonnenberg, D. Williams-Young, 
 F. Ding, F. Lipparini, F. Egidi, J. Goings, B. Peng, A. Petrone, 
 T. Henderson, D. Ranasinghe, V. G. Zakrzewski, J. Gao, N. Rega, 
 G. Zheng, W. Liang, M. Hada, M. Ehara, K. Toyota, R. Fukuda, 
 J. Hasegawa, M. Ishida, T. Nakajima, Y. Honda, O. Kitao, H. Nakai, 
 T. Vreven, K. Throssell, J. A. Montgomery, Jr., J. E. Peralta, 
 F. Ogliaro, M. J. Bearpark, J. J. Heyd, E. N. Brothers, K. N. Kudin, 
 V. N. Staroverov, T. A. Keith, R. Kobayashi, J. Normand, 
 K. Raghavachari, A. P. Rendell, J. C. Burant, S. S. Iyengar, 
 J. Tomasi, M. Cossi, J. M. Millam, M. Klene, C. Adamo, R. Cammi, 
 J. W. Ochterski, R. L. Martin, K. Morokuma, O. Farkas, 
 J. B. Foresman, and D. J. Fox, Gaussian, Inc., Wallingford CT, 2016.
 
 ******************************************
 Gaussian 16:  ES64L-G16RevA.03 25-Dec-2016
                14-Mar-2021 
 ******************************************
 ----------------------
 #n AM1 Opt Freq=Anharm
 ----------------------
 1/18=20,19=15,26=1,38=1,80=1/1,3;
 2/9=110,12=2,17=6,18=5,40=1/2;
 3/5=2,25=1,41=700000,71=1/1,2,3;
 4/35=1/1;
 5/5=2,35=1,38=5/2;
 6/7=2,8=2,9=2,10=2,28=1/1;
 7//1,2,3,16;
 1/18=20,19=15,26=1,80=1/3(2);
 2/9=110/2;
 99//99;
 2/9=110/2;
 3/5=2,25=1,41=700000,71=1,135=20/1,2,3;
 4/5=5,16=3,35=1/1;
 5/5=2,35=1,38=5/2;
 7//1,2,3,16;
 1/18=20,19=15,26=1,80=1/3(-5);
 2/9=110/2;
 6/7=2,8=2,9=2,10=2,19=2,28=1/1;
 99/9=1/99;
 -----
 Title
 -----
 Symbolic Z-matrix:
 Charge =  0 Multiplicity = 1
 O                     0.        0.        0. 
 O                     1.278     0.        0. 
 O                    -0.576     1.14      0. 
 

 GradGradGradGradGradGradGradGradGradGradGradGradGradGradGradGradGradGrad
 Berny optimization.
 Initialization pass.
                           ----------------------------
                           !    Initial Parameters    !
                           ! (Angstroms and Degrees)  !
 --------------------------                            --------------------------
 ! Name  Definition              Value          Derivative Info.                !
 --------------------------------------------------------------------------------
 ! R1    R(1,2)                  1.278          estimate D2E/DX2                !
 ! R2    R(1,3)                  1.2773         estimate D2E/DX2                !
 ! A1    A(2,1,3)              116.8058         estimate D2E/DX2                !
 --------------------------------------------------------------------------------
 Trust Radius=3.00D-01 FncErr=1.00D-07 GrdErr=1.00D-07 EigMax=2.50D+02 EigMin=1.00D-04
 Number of steps in this run=     20 maximum allowed number of steps=    100.
 GradGradGradGradGradGradGradGradGradGradGradGradGradGradGradGradGradGrad

                          Input orientation:                          
 ---------------------------------------------------------------------
 Center     Atomic      Atomic             Coordinates (Angstroms)
 Number     Number       Type             X           Y           Z
 ---------------------------------------------------------------------
      1          8           0        0.000000    0.000000    0.000000
      2          8           0        1.278000    0.000000    0.000000
      3          8           0       -0.576000    1.140000    0.000000
 ---------------------------------------------------------------------
                    Distance matrix (angstroms):
                    1          2          3
     1  O    0.000000
     2  O    1.278000   0.000000
     3  O    1.277253   2.176446   0.000000
 Stoichiometry    O3
 Framework group  CS[SG(O3)]
 Deg. of freedom     3
 Full point group                 CS      NOp   2
 Largest Abelian subgroup         CS      NOp   2
 Largest concise Abelian subgroup C1      NOp   1
                         Standard orientation:                         
 ---------------------------------------------------------------------
 Center     Atomic      Atomic             Coordinates (Angstroms)
 Number     Number       Type             X           Y           Z
 ---------------------------------------------------------------------
      1          8           0       -0.000000    0.446269   -0.000000
      2          8           0        1.088223   -0.223847    0.000000
      3          8           0       -1.088223   -0.222422    0.000000
 ---------------------------------------------------------------------
 Rotational constants (GHZ):         105.7671573          13.3404217          11.8462527
 Standard basis: VSTO-6G (5D, 7F)
 There are     9 symmetry adapted cartesian basis functions of A'  symmetry.
 There are     3 symmetry adapted cartesian basis functions of A"  symmetry.
 There are     9 symmetry adapted basis functions of A'  symmetry.
 There are     3 symmetry adapted basis functions of A"  symmetry.
    12 basis functions,    72 primitive gaussians,    12 cartesian basis functions
     9 alpha electrons        9 beta electrons
       nuclear repulsion energy        68.1595966083 Hartrees.
 Integral buffers will be    131072 words long.
 Regular integral format.
 Two-electron integral symmetry is turned off.
 Do NDO integrals.
 One-electron integrals computed using PRISM.
 NBasis=    12 RedAO= T EigKep=  1.00D+00  NBF=     9     3
 NBsUse=    12 1.00D-06 EigRej= -1.00D+00 NBFU=     9     3
 Simple Huckel Guess.
 Initial guess orbital symmetries:
       Occupied  (A') (A') (A') (A") (A') (A') (A") (A') (A')
       Virtual   (A") (A') (A')
 The electronic state of the initial guess is 1-A'.
 Keep J ints in memory in canonical form, NReq=859527.
 Overlap will be assumed to be unity.
 Requested convergence on RMS density matrix=1.00D-08 within 128 cycles.
 Requested convergence on MAX density matrix=1.00D-06.
 Requested convergence on             energy=1.00D-06.
 No special actions if energy rises.
 Fock symm off for IB=2 I1=    1 I=   10 J=    6 Cut=1.00D-07 Err=1.15D-03
 Fock matrix is not symmetric: symmetry in diagonalization turned off.
 SCF Done:  E(RAM1) =  0.107959381965     A.U. after   14 cycles
            NFock= 13  Conv=0.89D-08     -V/T= 1.0019

 **********************************************************************

            Population analysis using the SCF density.

 **********************************************************************

 Orbital symmetries:
       Occupied  (A') (A') (A') (A') (A') (A") (A') (A') (A")
       Virtual   (A") (A') (A')
 The electronic state is 1-A'.
 Alpha  occ. eigenvalues --   -1.57129  -1.36138  -1.14078  -0.79761  -0.73674
 Alpha  occ. eigenvalues --   -0.70358  -0.49976  -0.49379  -0.46510
 Alpha virt. eigenvalues --   -0.11527   0.04027   0.14947
          Condensed to atoms (all electrons):
               1          2          3
     1  O    5.567825   0.000000   0.000000
     2  O    0.000000   6.216432   0.000000
     3  O    0.000000   0.000000   6.215743
 Mulliken charges:
               1
     1  O    0.432175
     2  O   -0.216432
     3  O   -0.215743
 Sum of Mulliken charges =   0.00000
 Mulliken charges with hydrogens summed into heavy atoms:
               1
     1  O    0.432175
     2  O   -0.216432
     3  O   -0.215743
 Charge=              0.0000 electrons
 Dipole moment (field-independent basis, Debye):
    X=             -0.0036    Y=              1.1529    Z=              0.0000  Tot=              1.1529
 N-N= 6.815959660834D+01 E-N=-6.304443619632D+01  KE=-5.751881107309D+01
 Symmetry A'   KE=-4.577310880123D+01
 Symmetry A"   KE=-1.174570227185D+01
 Calling FoFJK, ICntrl=      2127 FMM=F ISym2X=1 I1Cent= 0 IOpClX= 0 NMat=1 NMatS=1 NMatT=0.
 ***** Axes restored to original set *****
 -------------------------------------------------------------------
 Center     Atomic                   Forces (Hartrees/Bohr)
 Number     Number              X              Y              Z
 -------------------------------------------------------------------
      1        8           0.093962046    0.152269958    0.000000000
      2        8          -0.197013501    0.016057798   -0.000000000
      3        8           0.103051455   -0.168327756   -0.000000000
 -------------------------------------------------------------------
 Cartesian Forces:  Max     0.197013501 RMS     0.110574768

 GradGradGradGradGradGradGradGradGradGradGradGradGradGradGradGradGradGrad
 Berny optimization.
 FormGI is forming the generalized inverse of G from B-inverse, IUseBI=4.
 Internal  Forces:  Max     0.197013500 RMS     0.162289807
 Search for a local minimum.
 Step number   1 out of a maximum of   20
 All quantities printed in internal units (Hartrees-Bohrs-Radians)
 Mixed Optimization -- RFO/linear search
 Second derivative matrix not updated -- first step.
 The second derivative matrix:
                          R1        R2        A1
           R1           0.73693
           R2           0.00000   0.73928
           A1           0.00000   0.00000   0.25000
 ITU=  0
     Eigenvalues ---    0.25000   0.73693   0.73928
 RFO step:  Lambda=-9.71328594D-02 EMin= 2.50000000D-01
 Linear search not attempted -- first point.
 Maximum step size (   0.300) exceeded in Quadratic search.
    -- Step size scaled by   0.853
 Iteration  1 RMS(Cart)=  0.18835162 RMS(Int)=  0.00597029
 Iteration  2 RMS(Cart)=  0.00503576 RMS(Int)=  0.00001882
 Iteration  3 RMS(Cart)=  0.00002168 RMS(Int)=  0.00000000
 Iteration  4 RMS(Cart)=  0.00000000 RMS(Int)=  0.00000000
 ClnCor:  largest displacement from symmetrization is 1.96D-15 for atom     3.
 Variable       Old X    -DE/DX   Delta X   Delta X   Delta X     New X
                                 (Linear)    (Quad)   (Total)
    R1        2.41507  -0.19701   0.00000  -0.20157  -0.20157   2.21350
    R2        2.41366  -0.19671   0.00000  -0.20070  -0.20070   2.21296
    A1        2.03865  -0.03878   0.00000  -0.09534  -0.09534   1.94331
         Item               Value     Threshold  Converged?
 Maximum Force            0.197014     0.000450     NO 
 RMS     Force            0.162290     0.000300     NO 
 Maximum Displacement     0.197951     0.001800     NO 
 RMS     Displacement     0.186913     0.001200     NO 
 Predicted change in Energy=-5.189309D-02
 GradGradGradGradGradGradGradGradGradGradGradGradGradGradGradGradGradGrad

                          Input orientation:                          
 ---------------------------------------------------------------------
 Center     Atomic      Atomic             Coordinates (Angstroms)
 Number     Number       Type             X           Y           Z
 ---------------------------------------------------------------------
      1          8           0        0.003249    0.004991    0.000000
      2          8           0        1.173249    0.060855   -0.000000
      3          8           0       -0.474498    1.074155    0.000000
 ---------------------------------------------------------------------
                    Distance matrix (angstroms):
                    1          2          3
     1  O    0.000000
     2  O    1.171333   0.000000
     3  O    1.171048   1.934386   0.000000
 Stoichiometry    O3
 Framework group  CS[SG(O3)]
 Deg. of freedom     3
 Full point group                 CS      NOp   2
 Largest Abelian subgroup         CS      NOp   2
 Largest concise Abelian subgroup C1      NOp   1
                         Standard orientation:                         
 ---------------------------------------------------------------------
 Center     Atomic      Atomic             Coordinates (Angstroms)
 Number     Number       Type             X           Y           Z
 ---------------------------------------------------------------------
      1          8           0       -0.000000    0.440316    0.000000
      2          8           0        0.967193   -0.220410   -0.000000
      3          8           0       -0.967193   -0.219906    0.000000
 ---------------------------------------------------------------------
 Rotational constants (GHZ):         108.6465431          16.8880362          14.6161063
 Standard basis: VSTO-6G (5D, 7F)
 There are     9 symmetry adapted cartesian basis functions of A'  symmetry.
 There are     3 symmetry adapted cartesian basis functions of A"  symmetry.
 There are     9 symmetry adapted basis functions of A'  symmetry.
 There are     3 symmetry adapted basis functions of A"  symmetry.
    12 basis functions,    72 primitive gaussians,    12 cartesian basis functions
     9 alpha electrons        9 beta electrons
       nuclear repulsion energy        70.7107645592 Hartrees.
 Integral buffers will be    131072 words long.
 Regular integral format.
 Two-electron integral symmetry is turned off.
 Do NDO integrals.
 One-electron integrals computed using PRISM.
 NBasis=    12 RedAO= T EigKep=  1.00D+00  NBF=     9     3
 NBsUse=    12 1.00D-06 EigRej= -1.00D+00 NBFU=     9     3
 Initial guess from the checkpoint file:  "/home/user/opt/gaussian/newcalc/Gau-5350.chk"
 B after Tr=     0.000000   -0.000000    0.000000
         Rot=    1.000000    0.000000   -0.000000   -0.000173 Ang=  -0.02 deg.
 Initial guess orbital symmetries:
       Occupied  (A') (A') (A') (A') (A') (A") (A') (A') (A")
       Virtual   (A") (A') (A')
 Keep J ints in memory in canonical form, NReq=859527.
 Overlap will be assumed to be unity.
 Requested convergence on RMS density matrix=1.00D-08 within 128 cycles.
 Requested convergence on MAX density matrix=1.00D-06.
 Requested convergence on             energy=1.00D-06.
 No special actions if energy rises.
 Fock symm off for IB=2 I1=    1 I=   10 J=    6 Cut=1.00D-07 Err=1.48D-03
 Fock matrix is not symmetric: symmetry in diagonalization turned off.
 SCF Done:  E(RAM1) =  0.685845875920E-01 A.U. after   13 cycles
            NFock= 12  Conv=0.56D-08     -V/T= 1.0012
 Calling FoFJK, ICntrl=      2127 FMM=F ISym2X=1 I1Cent= 0 IOpClX= 0 NMat=1 NMatS=1 NMatT=0.
 ***** Axes restored to original set *****
 -------------------------------------------------------------------
 Center     Atomic                   Forces (Hartrees/Bohr)
 Number     Number              X              Y              Z
 -------------------------------------------------------------------
      1        8           0.032219264    0.051813377    0.000000000
      2        8           0.023971129   -0.050669985   -0.000000000
      3        8          -0.056190393   -0.001143392   -0.000000000
 -------------------------------------------------------------------
 Cartesian Forces:  Max     0.056190393 RMS     0.033372372

 GradGradGradGradGradGradGradGradGradGradGradGradGradGradGradGradGradGrad
 Berny optimization.
 Using GEDIIS/GDIIS optimizer.
 FormGI is forming the generalized inverse of G from B-inverse, IUseBI=4.
 Internal  Forces:  Max     0.114560844 RMS     0.068474661
 Search for a local minimum.
 Step number   2 out of a maximum of   20
 All quantities printed in internal units (Hartrees-Bohrs-Radians)
 Mixed Optimization -- RFO/linear search
 Update second derivatives using D2CorX and points    1    2
 DE= -3.94D-02 DEPred=-5.19D-02 R= 7.59D-01
 TightC=F SS=  1.41D+00  RLast= 3.00D-01 DXNew= 5.0454D-01 9.0000D-01
 Trust test= 7.59D-01 RLast= 3.00D-01 DXMaxT set to 5.05D-01
 The second derivative matrix:
                          R1        R2        A1
           R1           0.84676
           R2           0.11035   0.85015
           A1           0.26970   0.26984   0.47014
 ITU=  1  0
 Use linear search instead of GDIIS.
     Eigenvalues ---    0.26143   0.73810   1.16752
 RFO step:  Lambda=-2.87755917D-02 EMin= 2.61429595D-01
 Quartic linear search produced a step of -0.13550.
 Iteration  1 RMS(Cart)=  0.11813727 RMS(Int)=  0.05208902
 Iteration  2 RMS(Cart)=  0.05118109 RMS(Int)=  0.00175685
 Iteration  3 RMS(Cart)=  0.00174209 RMS(Int)=  0.00000024
 Iteration  4 RMS(Cart)=  0.00000023 RMS(Int)=  0.00000000
 ClnCor:  largest displacement from symmetrization is 5.20D-17 for atom     2.
 Variable       Old X    -DE/DX   Delta X   Delta X   Delta X     New X
                                 (Linear)    (Quad)   (Total)
    R1        2.21350   0.02153   0.02731  -0.09845  -0.07114   2.14236
    R2        2.21296   0.02188   0.02720  -0.09755  -0.07035   2.14261
    A1        1.94331   0.11456   0.01292   0.28172   0.29464   2.23795
         Item               Value     Threshold  Converged?
 Maximum Force            0.114561     0.000450     NO 
 RMS     Force            0.068475     0.000300     NO 
 Maximum Displacement     0.177427     0.001800     NO 
 RMS     Displacement     0.168417     0.001200     NO 
 Predicted change in Energy=-1.672389D-02
 GradGradGradGradGradGradGradGradGradGradGradGradGradGradGradGradGradGrad

                          Input orientation:                          
 ---------------------------------------------------------------------
 Center     Atomic      Atomic             Coordinates (Angstroms)
 Number     Number       Type             X           Y           Z
 ---------------------------------------------------------------------
      1          8           0        0.061163    0.098881   -0.000000
      2          8           0        1.189239   -0.013785   -0.000000
      3          8           0       -0.548402    1.054904    0.000000
 ---------------------------------------------------------------------
                    Distance matrix (angstroms):
                    1          2          3
     1  O    0.000000
     2  O    1.133688   0.000000
     3  O    1.133820   2.039973   0.000000
 Stoichiometry    O3
 Framework group  CS[SG(O3)]
 Deg. of freedom     3
 Full point group                 CS      NOp   2
 Largest Abelian subgroup         CS      NOp   2
 Largest concise Abelian subgroup C1      NOp   1
                         Standard orientation:                         
 ---------------------------------------------------------------------
 Center     Atomic      Atomic             Coordinates (Angstroms)
 Number     Number       Type             X           Y           Z
 ---------------------------------------------------------------------
      1          8           0        0.000000    0.330001   -0.000000
      2          8           0        1.019986   -0.164849    0.000000
      3          8           0       -1.019986   -0.165151   -0.000000
 ---------------------------------------------------------------------
 Rotational constants (GHZ):         193.4255371          15.1850569          14.0797154
 Standard basis: VSTO-6G (5D, 7F)
 There are     9 symmetry adapted cartesian basis functions of A'  symmetry.
 There are     3 symmetry adapted cartesian basis functions of A"  symmetry.
 There are     9 symmetry adapted basis functions of A'  symmetry.
 There are     3 symmetry adapted basis functions of A"  symmetry.
    12 basis functions,    72 primitive gaussians,    12 cartesian basis functions
     9 alpha electrons        9 beta electrons
       nuclear repulsion energy        70.9731833206 Hartrees.
 Integral buffers will be    131072 words long.
 Regular integral format.
 Two-electron integral symmetry is turned off.
 Do NDO integrals.
 One-electron integrals computed using PRISM.
 NBasis=    12 RedAO= T EigKep=  1.00D+00  NBF=     9     3
 NBsUse=    12 1.00D-06 EigRej= -1.00D+00 NBFU=     9     3
 Initial guess from the checkpoint file:  "/home/user/opt/gaussian/newcalc/Gau-5350.chk"
 B after Tr=     0.000000   -0.000000   -0.000000
         Rot=    1.000000   -0.000000   -0.000000   -0.000184 Ang=  -0.02 deg.
 Initial guess orbital symmetries:
       Occupied  (A') (A') (A') (A') (A') (A") (A') (A') (A")
       Virtual   (A") (A') (A')
 Keep J ints in memory in canonical form, NReq=859527.
 Overlap will be assumed to be unity.
 Requested convergence on RMS density matrix=1.00D-08 within 128 cycles.
 Requested convergence on MAX density matrix=1.00D-06.
 Requested convergence on             energy=1.00D-06.
 No special actions if energy rises.
 Fock symm off for IB=2 I1=    1 I=   10 J=    5 Cut=1.00D-07 Err=4.01D-03
 Fock matrix is not symmetric: symmetry in diagonalization turned off.
 SCF Done:  E(RAM1) =  0.654803363853E-01 A.U. after   14 cycles
            NFock= 13  Conv=0.24D-08     -V/T= 1.0011
 Calling FoFJK, ICntrl=      2127 FMM=F ISym2X=1 I1Cent= 0 IOpClX= 0 NMat=1 NMatS=1 NMatT=0.
 ***** Axes restored to original set *****
 -------------------------------------------------------------------
 Center     Atomic                   Forces (Hartrees/Bohr)
 Number     Number              X              Y              Z
 -------------------------------------------------------------------
      1        8          -0.041624322   -0.067350624    0.000000000
      2        8           0.043414571    0.019826702   -0.000000000
      3        8          -0.001790249    0.047523921   -0.000000000
 -------------------------------------------------------------------
 Cartesian Forces:  Max     0.067350624 RMS     0.034654392

 GradGradGradGradGradGradGradGradGradGradGradGradGradGradGradGradGradGrad
 Berny optimization.
 Using GEDIIS/GDIIS optimizer.
 FormGI is forming the generalized inverse of G from B-inverse, IUseBI=4.
 Internal  Forces:  Max     0.051508965 RMS     0.044858365
 Search for a local minimum.
 Step number   3 out of a maximum of   20
 All quantities printed in internal units (Hartrees-Bohrs-Radians)
 Mixed Optimization -- RFO/linear search
 Update second derivatives using D2CorX and points    1    2    3
 DE= -3.10D-03 DEPred=-1.67D-02 R= 1.86D-01
 Trust test= 1.86D-01 RLast= 3.11D-01 DXMaxT set to 5.05D-01
 The second derivative matrix:
                          R1        R2        A1
           R1           0.84192
           R2           0.10545   0.84519
           A1           0.16158   0.16226   0.64139
 ITU=  0  1  0
 Use linear search instead of GDIIS.
     Eigenvalues ---    0.51935   0.73810   1.07105
 RFO step:  Lambda=-2.49069944D-03 EMin= 5.19346502D-01
 Quartic linear search produced a step of -0.45623.
 Iteration  1 RMS(Cart)=  0.07084799 RMS(Int)=  0.00405146
 Iteration  2 RMS(Cart)=  0.00483748 RMS(Int)=  0.00000632
 Iteration  3 RMS(Cart)=  0.00000480 RMS(Int)=  0.00000000
 Iteration  4 RMS(Cart)=  0.00000000 RMS(Int)=  0.00000000
 ClnCor:  largest displacement from symmetrization is 1.42D-15 for atom     3.
 Variable       Old X    -DE/DX   Delta X   Delta X   Delta X     New X
                                 (Linear)    (Quad)   (Total)
    R1        2.14236   0.04123   0.03245   0.03457   0.06703   2.20939
    R2        2.14261   0.04103   0.03210   0.03446   0.06655   2.20916
    A1        2.23795  -0.05151  -0.13442   0.00811  -0.12631   2.11164
         Item               Value     Threshold  Converged?
 Maximum Force            0.051509     0.000450     NO 
 RMS     Force            0.044858     0.000300     NO 
 Maximum Displacement     0.086617     0.001800     NO 
 RMS     Displacement     0.072079     0.001200     NO 
 Predicted change in Energy=-5.382627D-03
 GradGradGradGradGradGradGradGradGradGradGradGradGradGradGradGradGradGrad

                          Input orientation:                          
 ---------------------------------------------------------------------
 Center     Atomic      Atomic             Coordinates (Angstroms)
 Number     Number       Type             X           Y           Z
 ---------------------------------------------------------------------
      1          8           0        0.032872    0.053045    0.000000
      2          8           0        1.201254    0.010470   -0.000000
      3          8           0       -0.532126    1.076485    0.000000
 ---------------------------------------------------------------------
                    Distance matrix (angstroms):
                    1          2          3
     1  O    0.000000
     2  O    1.169157   0.000000
     3  O    1.169039   2.034943   0.000000
 Stoichiometry    O3
 Framework group  CS[SG(O3)]
 Deg. of freedom     3
 Full point group                 CS      NOp   2
 Largest Abelian subgroup         CS      NOp   2
 Largest concise Abelian subgroup C1      NOp   1
                         Standard orientation:                         
 ---------------------------------------------------------------------
 Center     Atomic      Atomic             Coordinates (Angstroms)
 Number     Number       Type             X           Y           Z
 ---------------------------------------------------------------------
      1          8           0       -0.000000    0.383864    0.000000
      2          8           0        1.017472   -0.192052    0.000000
      3          8           0       -1.017472   -0.191812    0.000000
 ---------------------------------------------------------------------
 Rotational constants (GHZ):         142.9514483          15.2602135          13.7882985
 Standard basis: VSTO-6G (5D, 7F)
 There are     9 symmetry adapted cartesian basis functions of A'  symmetry.
 There are     3 symmetry adapted cartesian basis functions of A"  symmetry.
 There are     9 symmetry adapted basis functions of A'  symmetry.
 There are     3 symmetry adapted basis functions of A"  symmetry.
    12 basis functions,    72 primitive gaussians,    12 cartesian basis functions
     9 alpha electrons        9 beta electrons
       nuclear repulsion energy        70.3725847858 Hartrees.
 Integral buffers will be    131072 words long.
 Regular integral format.
 Two-electron integral symmetry is turned off.
 Do NDO integrals.
 One-electron integrals computed using PRISM.
 NBasis=    12 RedAO= T EigKep=  1.00D+00  NBF=     9     3
 NBsUse=    12 1.00D-06 EigRej= -1.00D+00 NBFU=     9     3
 Initial guess from the checkpoint file:  "/home/user/opt/gaussian/newcalc/Gau-5350.chk"
 B after Tr=    -0.000000   -0.000000    0.000000
         Rot=    1.000000    0.000000    0.000000    0.000122 Ang=   0.01 deg.
 Initial guess orbital symmetries:
       Occupied  (A') (A') (A') (A') (A") (A') (A') (A") (A')
       Virtual   (A") (A') (A')
 Keep J ints in memory in canonical form, NReq=859527.
 Overlap will be assumed to be unity.
 Requested convergence on RMS density matrix=1.00D-08 within 128 cycles.
 Requested convergence on MAX density matrix=1.00D-06.
 Requested convergence on             energy=1.00D-06.
 No special actions if energy rises.
 Fock symm off for IB=2 I1=    1 I=   10 J=    6 Cut=1.00D-07 Err=2.24D-03
 Fock matrix is not symmetric: symmetry in diagonalization turned off.
 SCF Done:  E(RAM1) =  0.604475931090E-01 A.U. after   13 cycles
            NFock= 12  Conv=0.31D-08     -V/T= 1.0010
 Calling FoFJK, ICntrl=      2127 FMM=F ISym2X=1 I1Cent= 0 IOpClX= 0 NMat=1 NMatS=1 NMatT=0.
 ***** Axes restored to original set *****
 -------------------------------------------------------------------
 Center     Atomic                   Forces (Hartrees/Bohr)
 Number     Number              X              Y              Z
 -------------------------------------------------------------------
      1        8           0.007644525    0.012184942    0.000000000
      2        8          -0.021892417    0.004978406   -0.000000000
      3        8           0.014247892   -0.017163348   -0.000000000
 -------------------------------------------------------------------
 Cartesian Forces:  Max     0.021892417 RMS     0.011588102

 GradGradGradGradGradGradGradGradGradGradGradGradGradGradGradGradGradGrad
 Berny optimization.
 Using GEDIIS/GDIIS optimizer.
 FormGI is forming the generalized inverse of G from B-inverse, IUseBI=4.
 Internal  Forces:  Max     0.022059188 RMS     0.018725522
 Search for a local minimum.
 Step number   4 out of a maximum of   20
 All quantities printed in internal units (Hartrees-Bohrs-Radians)
 Mixed Optimization -- RFO/linear search
 Update second derivatives using D2CorX and points    1    2    3    4
 DE= -5.03D-03 DEPred=-5.38D-03 R= 9.35D-01
 TightC=F SS=  1.41D+00  RLast= 1.58D-01 DXNew= 8.4853D-01 4.7317D-01
 Trust test= 9.35D-01 RLast= 1.58D-01 DXMaxT set to 5.05D-01
 The second derivative matrix:
                          R1        R2        A1
           R1           1.07656
           R2           0.33896   1.07758
           A1           0.24882   0.24931   0.59812
 ITU=  1  0  1  0
 Use linear search instead of GDIIS.
     Eigenvalues ---    0.46734   0.73811   1.54681
 RFO step:  Lambda=-4.52102600D-04 EMin= 4.67339726D-01
 Quartic linear search produced a step of -0.13269.
 Iteration  1 RMS(Cart)=  0.01209111 RMS(Int)=  0.00000910
 Iteration  2 RMS(Cart)=  0.00000944 RMS(Int)=  0.00000000
 Iteration  3 RMS(Cart)=  0.00000000 RMS(Int)=  0.00000000
 ClnCor:  largest displacement from symmetrization is 4.73D-16 for atom     2.
 Variable       Old X    -DE/DX   Delta X   Delta X   Delta X     New X
                                 (Linear)    (Quad)   (Total)
    R1        2.20939  -0.02206  -0.00889  -0.00645  -0.01535   2.19404
    R2        2.20916  -0.02191  -0.00883  -0.00629  -0.01512   2.19404
    A1        2.11164  -0.00923   0.01676  -0.01901  -0.00225   2.10939
         Item               Value     Threshold  Converged?
 Maximum Force            0.022059     0.000450     NO 
 RMS     Force            0.018726     0.000300     NO 
 Maximum Displacement     0.013311     0.001800     NO 
 RMS     Displacement     0.012087     0.001200     NO 
 Predicted change in Energy=-3.434174D-04
 GradGradGradGradGradGradGradGradGradGradGradGradGradGradGradGradGradGrad

                          Input orientation:                          
 ---------------------------------------------------------------------
 Center     Atomic      Atomic             Coordinates (Angstroms)
 Number     Number       Type             X           Y           Z
 ---------------------------------------------------------------------
      1          8           0        0.033897    0.054633    0.000000
      2          8           0        1.194210    0.013679   -0.000000
      3          8           0       -0.526107    1.071688    0.000000
 ---------------------------------------------------------------------
                    Distance matrix (angstroms):
                    1          2          3
     1  O    0.000000
     2  O    1.161036   0.000000
     3  O    1.161036   2.019622   0.000000
 Stoichiometry    O3
 Framework group  C2V[C2(O),SGV(O2)]
 Deg. of freedom     2
 Full point group                 C2V     NOp   4
 Omega: Change in point group or standard orientation.

 Old FWG=CS   [SG(O3)]
 New FWG=C02V [C2(O1),SGV(O2)]
 Largest Abelian subgroup         C2V     NOp   4
 Largest concise Abelian subgroup C2      NOp   2
                         Standard orientation:                         
 ---------------------------------------------------------------------
 Center     Atomic      Atomic             Coordinates (Angstroms)
 Number     Number       Type             X           Y           Z
 ---------------------------------------------------------------------
      1          8           0       -0.000000   -0.000000   -0.381975
      2          8           0        0.000000   -1.009811    0.190988
      3          8           0       -0.000000    1.009811    0.190988
 ---------------------------------------------------------------------
 Rotational constants (GHZ):         144.3689083          15.4926296          13.9911954
 Standard basis: VSTO-6G (5D, 7F)
 There are     5 symmetry adapted cartesian basis functions of A1  symmetry.
 There are     1 symmetry adapted cartesian basis functions of A2  symmetry.
 There are     2 symmetry adapted cartesian basis functions of B1  symmetry.
 There are     4 symmetry adapted cartesian basis functions of B2  symmetry.
 There are     5 symmetry adapted basis functions of A1  symmetry.
 There are     1 symmetry adapted basis functions of A2  symmetry.
 There are     2 symmetry adapted basis functions of B1  symmetry.
 There are     4 symmetry adapted basis functions of B2  symmetry.
    12 basis functions,    72 primitive gaussians,    12 cartesian basis functions
     9 alpha electrons        9 beta electrons
       nuclear repulsion energy        70.5660504874 Hartrees.
 Integral buffers will be    131072 words long.
 Regular integral format.
 Two-electron integral symmetry is turned off.
 Do NDO integrals.
 One-electron integrals computed using PRISM.
 NBasis=    12 RedAO= T EigKep=  1.00D+00  NBF=     5     1     2     4
 NBsUse=    12 1.00D-06 EigRej= -1.00D+00 NBFU=     5     1     2     4
 Initial guess from the checkpoint file:  "/home/user/opt/gaussian/newcalc/Gau-5350.chk"
 B after Tr=    -0.000000    0.000000   -0.000000
         Rot=    0.500027    0.499973   -0.500027    0.499973 Ang= 120.00 deg.
 Initial guess orbital symmetries:
       Occupied  (A1) (B2) (A1) (B2) (A1) (B1) (B2) (A1) (A2)
       Virtual   (B1) (A1) (B2)
 Keep J ints in memory in canonical form, NReq=859527.
 Overlap will be assumed to be unity.
 Requested convergence on RMS density matrix=1.00D-08 within 128 cycles.
 Requested convergence on MAX density matrix=1.00D-06.
 Requested convergence on             energy=1.00D-06.
 No special actions if energy rises.
 Fock symm off for IB=3 I1=    1 I=    7 J=    2 Cut=1.00D-07 Err=2.81D-04
 Fock matrix is not symmetric: symmetry in diagonalization turned off.
 SCF Done:  E(RAM1) =  0.600730590973E-01 A.U. after   10 cycles
            NFock=  9  Conv=0.12D-08     -V/T= 1.0010
 Calling FoFJK, ICntrl=      2127 FMM=F ISym2X=1 I1Cent= 0 IOpClX= 0 NMat=1 NMatS=1 NMatT=0.
 ***** Axes restored to original set *****
 -------------------------------------------------------------------
 Center     Atomic                   Forces (Hartrees/Bohr)
 Number     Number              X              Y              Z
 -------------------------------------------------------------------
      1        8           0.000549312    0.000893179    0.000000000
      2        8          -0.001673031    0.000413422   -0.000000000
      3        8           0.001123719   -0.001306602   -0.000000000
 -------------------------------------------------------------------
 Cartesian Forces:  Max     0.001673031 RMS     0.000884397

 GradGradGradGradGradGradGradGradGradGradGradGradGradGradGradGradGradGrad
 Berny optimization.
 Using GEDIIS/GDIIS optimizer.
 FormGI is forming the generalized inverse of G from B-inverse, IUseBI=4.
 Internal  Forces:  Max     0.001686573 RMS     0.001448312
 Search for a local minimum.
 Step number   5 out of a maximum of   20
 All quantities printed in internal units (Hartrees-Bohrs-Radians)
 Mixed Optimization -- RFO/linear search
 Update second derivatives using D2CorX and points    2    3    4    5
 DE= -3.75D-04 DEPred=-3.43D-04 R= 1.09D+00
 TightC=F SS=  1.41D+00  RLast= 2.17D-02 DXNew= 8.4853D-01 6.4991D-02
 Trust test= 1.09D+00 RLast= 2.17D-02 DXMaxT set to 5.05D-01
 The second derivative matrix:
                          R1        R2        A1
           R1           1.01749
           R2           0.27994   1.01859
           A1           0.23263   0.23303   0.60373
 ITU=  1  1  0  1
 Use linear search instead of GDIIS.
     Eigenvalues ---    0.47240   0.73810   1.42931
 RFO step:  Lambda=-1.45025418D-08 EMin= 4.72400895D-01
 Quartic linear search produced a step of  0.08118.
 Iteration  1 RMS(Cart)=  0.00101537 RMS(Int)=  0.00000011
 Iteration  2 RMS(Cart)=  0.00000011 RMS(Int)=  0.00000000
 ClnCor:  largest displacement from symmetrization is 4.35D-07 for atom     3.
 Variable       Old X    -DE/DX   Delta X   Delta X   Delta X     New X
                                 (Linear)    (Quad)   (Total)
    R1        2.19404  -0.00169  -0.00125   0.00004  -0.00120   2.19284
    R2        2.19404  -0.00169  -0.00123   0.00003  -0.00120   2.19284
    A1        2.10939  -0.00078  -0.00018  -0.00017  -0.00035   2.10904
         Item               Value     Threshold  Converged?
 Maximum Force            0.001687     0.000450     NO 
 RMS     Force            0.001448     0.000300     NO 
 Maximum Displacement     0.001097     0.001800     YES
 RMS     Displacement     0.001015     0.001200     YES
 Predicted change in Energy=-2.218305D-06
 GradGradGradGradGradGradGradGradGradGradGradGradGradGradGradGradGradGrad

                          Input orientation:                          
 ---------------------------------------------------------------------
 Center     Atomic      Atomic             Coordinates (Angstroms)
 Number     Number       Type             X           Y           Z
 ---------------------------------------------------------------------
      1          8           0        0.033945    0.054711   -0.000000
      2          8           0        1.193630    0.013982   -0.000000
      3          8           0       -0.525574    1.071306    0.000000
 ---------------------------------------------------------------------
                    Distance matrix (angstroms):
                    1          2          3
     1  O    0.000000
     2  O    1.160400   0.000000
     3  O    1.160400   2.018315   0.000000
 Stoichiometry    O3
 Framework group  C2V[C2(O),SGV(O2)]
 Deg. of freedom     2
 Full point group                 C2V     NOp   4
 Largest Abelian subgroup         C2V     NOp   4
 Largest concise Abelian subgroup C2      NOp   2
                         Standard orientation:                         
 ---------------------------------------------------------------------
 Center     Atomic      Atomic             Coordinates (Angstroms)
 Number     Number       Type             X           Y           Z
 ---------------------------------------------------------------------
      1          8           0       -0.000000   -0.000000   -0.381883
      2          8           0        0.000000   -1.009158    0.190942
      3          8           0       -0.000000    1.009158    0.190942
 ---------------------------------------------------------------------
 Rotational constants (GHZ):         144.4384899          15.5126949          14.0082128
 Standard basis: VSTO-6G (5D, 7F)
 There are     5 symmetry adapted cartesian basis functions of A1  symmetry.
 There are     1 symmetry adapted cartesian basis functions of A2  symmetry.
 There are     2 symmetry adapted cartesian basis functions of B1  symmetry.
 There are     4 symmetry adapted cartesian basis functions of B2  symmetry.
 There are     5 symmetry adapted basis functions of A1  symmetry.
 There are     1 symmetry adapted basis functions of A2  symmetry.
 There are     2 symmetry adapted basis functions of B1  symmetry.
 There are     4 symmetry adapted basis functions of B2  symmetry.
    12 basis functions,    72 primitive gaussians,    12 cartesian basis functions
     9 alpha electrons        9 beta electrons
       nuclear repulsion energy        70.5817613452 Hartrees.
 Integral buffers will be    131072 words long.
 Regular integral format.
 Two-electron integral symmetry is turned off.
 Do NDO integrals.
 One-electron integrals computed using PRISM.
 NBasis=    12 RedAO= T EigKep=  1.00D+00  NBF=     5     1     2     4
 NBsUse=    12 1.00D-06 EigRej= -1.00D+00 NBFU=     5     1     2     4
 Initial guess from the checkpoint file:  "/home/user/opt/gaussian/newcalc/Gau-5350.chk"
 B after Tr=     0.000000   -0.000000    0.000000
         Rot=    1.000000   -0.000000   -0.000000   -0.000000 Ang=   0.00 deg.
 Initial guess orbital symmetries:
       Occupied  (A1) (B2) (A1) (B2) (A1) (B1) (B2) (A2) (A1)
       Virtual   (B1) (A1) (B2)
 Keep J ints in memory in canonical form, NReq=859527.
 Overlap will be assumed to be unity.
 Requested convergence on RMS density matrix=1.00D-08 within 128 cycles.
 Requested convergence on MAX density matrix=1.00D-06.
 Requested convergence on             energy=1.00D-06.
 No special actions if energy rises.
 Fock symm off for IB=3 I1=    1 I=    7 J=    2 Cut=1.00D-07 Err=2.07D-05
 Fock matrix is not symmetric: symmetry in diagonalization turned off.
 SCF Done:  E(RAM1) =  0.600708966666E-01 A.U. after    9 cycles
            NFock=  8  Conv=0.94D-09     -V/T= 1.0010
 Calling FoFJK, ICntrl=      2127 FMM=F ISym2X=1 I1Cent= 0 IOpClX= 0 NMat=1 NMatS=1 NMatT=0.
 ***** Axes restored to original set *****
 -------------------------------------------------------------------
 Center     Atomic                   Forces (Hartrees/Bohr)
 Number     Number              X              Y              Z
 -------------------------------------------------------------------
      1        8           0.000009256    0.000015051    0.000000000
      2        8          -0.000001302   -0.000009571   -0.000000000
      3        8          -0.000007954   -0.000005480   -0.000000000
 -------------------------------------------------------------------
 Cartesian Forces:  Max     0.000015051 RMS     0.000007445

 GradGradGradGradGradGradGradGradGradGradGradGradGradGradGradGradGradGrad
 Berny optimization.
 Using GEDIIS/GDIIS optimizer.
 FormGI is forming the generalized inverse of G from B-inverse, IUseBI=4.
 Internal  Forces:  Max     0.000021075 RMS     0.000012193
 Search for a local minimum.
 Step number   6 out of a maximum of   20
 All quantities printed in internal units (Hartrees-Bohrs-Radians)
 Mixed Optimization -- En-DIIS/RFO-DIIS
 Update second derivatives using D2CorX and points    3    4    5    6
 DE= -2.16D-06 DEPred=-2.22D-06 R= 9.75D-01
 TightC=F SS=  1.41D+00  RLast= 1.74D-03 DXNew= 8.4853D-01 5.2077D-03
 Trust test= 9.75D-01 RLast= 1.74D-03 DXMaxT set to 5.05D-01
 The second derivative matrix:
                          R1        R2        A1
           R1           1.03437
           R2           0.29627   1.03437
           A1           0.24544   0.24544   0.59593
 ITU=  1  1  1  0
 Use linear search instead of GDIIS.
     Eigenvalues ---    0.45788   0.73810   1.46869
 RFO step:  Lambda= 0.00000000D+00 EMin= 4.57882676D-01
 Quartic linear search produced a step of -0.00116.
 Iteration  1 RMS(Cart)=  0.00002457 RMS(Int)=  0.00000000
 Iteration  2 RMS(Cart)=  0.00000000 RMS(Int)=  0.00000000
 ClnCor:  largest displacement from symmetrization is 5.10D-12 for atom     3.
 Variable       Old X    -DE/DX   Delta X   Delta X   Delta X     New X
                                 (Linear)    (Quad)   (Total)
    R1        2.19284  -0.00000   0.00000  -0.00001  -0.00001   2.19283
    R2        2.19284  -0.00000   0.00000  -0.00001  -0.00001   2.19283
    A1        2.10904   0.00002   0.00000   0.00004   0.00004   2.10908
         Item               Value     Threshold  Converged?
 Maximum Force            0.000021     0.000450     YES
 RMS     Force            0.000012     0.000300     YES
 Maximum Displacement     0.000025     0.001800     YES
 RMS     Displacement     0.000025     0.001200     YES
 Predicted change in Energy=-4.550960D-10
 Optimization completed.
    -- Stationary point found.
                           ----------------------------
                           !   Optimized Parameters   !
                           ! (Angstroms and Degrees)  !
 --------------------------                            --------------------------
 ! Name  Definition              Value          Derivative Info.                !
 --------------------------------------------------------------------------------
 ! R1    R(1,2)                  1.1604         -DE/DX =    0.0                 !
 ! R2    R(1,3)                  1.1604         -DE/DX =    0.0                 !
 ! A1    A(2,1,3)              120.8392         -DE/DX =    0.0                 !
 --------------------------------------------------------------------------------
 GradGradGradGradGradGradGradGradGradGradGradGradGradGradGradGradGradGrad

                          Input orientation:                          
 ---------------------------------------------------------------------
 Center     Atomic      Atomic             Coordinates (Angstroms)
 Number     Number       Type             X           Y           Z
 ---------------------------------------------------------------------
      1          8           0        0.033945    0.054711    0.000000
      2          8           0        1.193630    0.013982   -0.000000
      3          8           0       -0.525574    1.071306    0.000000
 ---------------------------------------------------------------------
                    Distance matrix (angstroms):
                    1          2          3
     1  O    0.000000
     2  O    1.160400   0.000000
     3  O    1.160400   2.018315   0.000000
 Stoichiometry    O3
 Framework group  C2V[C2(O),SGV(O2)]
 Deg. of freedom     2
 Full point group                 C2V     NOp   4
 Largest Abelian subgroup         C2V     NOp   4
 Largest concise Abelian subgroup C2      NOp   2
                         Standard orientation:                         
 ---------------------------------------------------------------------
 Center     Atomic      Atomic             Coordinates (Angstroms)
 Number     Number       Type             X           Y           Z
 ---------------------------------------------------------------------
      1          8           0        0.000000   -0.000000   -0.381883
      2          8           0        0.000000   -1.009158    0.190942
      3          8           0       -0.000000    1.009158    0.190942
 ---------------------------------------------------------------------
 Rotational constants (GHZ):         144.4384899          15.5126949          14.0082128

 **********************************************************************

            Population analysis using the SCF density.

 **********************************************************************

 Orbital symmetries:
       Occupied  (A1) (B2) (A1) (B2) (A1) (B1) (B2) (A2) (A1)
       Virtual   (B1) (A1) (B2)
 The electronic state is 1-A1.
 Alpha  occ. eigenvalues --   -1.73458  -1.48142  -1.12357  -0.82155  -0.78760
 Alpha  occ. eigenvalues --   -0.78743  -0.50543  -0.48371  -0.48149
 Alpha virt. eigenvalues --   -0.07143   0.07971   0.21892
          Condensed to atoms (all electrons):
               1          2          3
     1  O    5.446802   0.000000   0.000000
     2  O    0.000000   6.276599   0.000000
     3  O    0.000000   0.000000   6.276599
 Mulliken charges:
               1
     1  O    0.553198
     2  O   -0.276599
     3  O   -0.276599
 Sum of Mulliken charges =  -0.00000
 Mulliken charges with hydrogens summed into heavy atoms:
               1
     1  O    0.553198
     2  O   -0.276599
     3  O   -0.276599
 Charge=              0.0000 electrons
 Dipole moment (field-independent basis, Debye):
    X=             -0.0000    Y=             -0.0000    Z=             -1.2002  Tot=              1.2002
 N-N= 7.058176134519D+01 E-N=-6.669591862919D+01  KE=-5.793389948319D+01
 Symmetry A1   KE=-2.661491128335D+01
 Symmetry A2   KE=-5.736997145145D+00
 Symmetry B1   KE=-6.113001824287D+00
 Symmetry B2   KE=-1.946898923041D+01
 1\1\GINC-USER-VIVOBOOK-15-ASUS-LAPTOP-X507UF\FOpt\RAM1\ZDO\O3\USER\14-
 Mar-2021\0\\#n AM1 Opt Freq=Anharm\\Title\\0,1\O,0.0339448667,0.054711
 2965,0.\O,1.1936295291,0.0139822581,0.\O,-0.5255744556,1.071306348,0.\
 \Version=ES64L-G16RevA.03\State=1-A1\HF=0.0600709\RMSD=9.428e-10\RMSF=
 7.445e-06\Dipole=-0.2473641,-0.4022128,0.\PG=C02V [C2(O1),SGV(O2)]\\@


 WHEN HAVING A MEETING OF THE MINDS,
 MAKE SURE YOU HAVE THE EQUIPMENT FOR IT.
 Job cpu time:       0 days  0 hours  0 minutes  3.1 seconds.
 Elapsed time:       0 days  0 hours  0 minutes  2.8 seconds.
 File lengths (MBytes):  RWF=      6 Int=      0 D2E=      0 Chk=      2 Scr=      1
 Normal termination of Gaussian 16 at Sun Mar 14 13:58:35 2021.
 Link1:  Proceeding to internal job step number  2.
 -------------------------------------------------------------
 #N Geom=AllCheck Guess=TCheck SCRF=Check GenChk RAM1/ZDO Freq
 -------------------------------------------------------------
 1/10=4,29=7,30=1,38=21,40=1,80=1/1,6,3;
 2/12=2,40=1/2;
 3/5=2,14=-4,25=1,41=700000,70=2,71=2,116=1,135=40,140=1/1,2,3;
 4/5=101,35=1,69=2/1;
 5/5=2,35=1,38=6,98=1/2;
 8/6=4,10=90,11=11/1;
 11/6=1,8=1,9=11,15=111,16=1/1,2,10;
 10/6=1,60=-2/2;
 6/7=2,8=2,9=2,10=2,28=1/1;
 7/10=1,25=1,71=2/1,2,3,16;
 1/38=20,80=1/6(3);
 7/8=1,25=202,44=-1,71=1,92=10/16,17;
 1/10=4,30=1,38=20,80=1/3;
 99//99;
 3/5=2,14=-2,25=1,41=700000,70=5,71=2,116=1,135=20,140=1/1,2,3;
 4/5=5,16=3,35=1,69=2/1;
 5/5=2,35=1,38=5,98=1/2;
 8/6=4,10=90,11=11/1;
 11/6=1,8=1,9=11,15=111,16=1/1,2,10;
 10/6=1,60=-2/2;
 6/7=2,8=2,9=2,10=2,28=1/1;
 7/7=1,10=1,25=1,71=1/1,2,3,16;
 1/38=20,80=1/6(-8);
 7/8=1,25=202,44=-1,71=1,92=10/16,17;
 1/10=4,30=1,38=20,80=1/3;
 99//99;
 Structure from the checkpoint file:  "/home/user/opt/gaussian/newcalc/Gau-5350.chk"
 -----
 Title
 -----
 Charge =  0 Multiplicity = 1
 Redundant internal coordinates found in file.  (old form).
 O,0,0.0339448667,0.0547112965,0.
 O,0,1.1936295291,0.0139822581,0.
 O,0,-0.5255744556,1.071306348,0.
 Recover connectivity data from disk.
 Numerical evaluation of third derivatives.
 Nuclear step= 0.010000 Angstroms, electric field step= 0.000333 atomic units, NStep=1.

 GradGradGradGradGradGradGradGradGradGradGradGradGradGradGradGradGradGrad
 Berny optimization.
 Initialization pass.
                           ----------------------------
                           !    Initial Parameters    !
                           ! (Angstroms and Degrees)  !
 --------------------------                            --------------------------
 ! Name  Definition              Value          Derivative Info.                !
 --------------------------------------------------------------------------------
 ! R1    R(1,2)                  1.1604         calculate D2E/DX2 analytically  !
 ! R2    R(1,3)                  1.1604         calculate D2E/DX2 analytically  !
 ! A1    A(2,1,3)              120.8392         calculate D2E/DX2 analytically  !
 --------------------------------------------------------------------------------
 Trust Radius=3.00D-01 FncErr=1.00D-07 GrdErr=1.00D-07 EigMax=2.50D+02 EigMin=1.00D-04
 Number of steps in this run=      2 maximum allowed number of steps=      2.
 GradGradGradGradGradGradGradGradGradGradGradGradGradGradGradGradGradGrad

                          Input orientation:                          
 ---------------------------------------------------------------------
 Center     Atomic      Atomic             Coordinates (Angstroms)
 Number     Number       Type             X           Y           Z
 ---------------------------------------------------------------------
      1          8           0        0.033945    0.054711    0.000000
      2          8           0        1.193630    0.013982   -0.000000
      3          8           0       -0.525574    1.071306    0.000000
 ---------------------------------------------------------------------
                    Distance matrix (angstroms):
                    1          2          3
     1  O    0.000000
     2  O    1.160400   0.000000
     3  O    1.160400   2.018315   0.000000
 Stoichiometry    O3
 Framework group  C2V[C2(O),SGV(O2)]
 Deg. of freedom     2
 Full point group                 C2V     NOp   4
 Largest Abelian subgroup         C2V     NOp   4
 Largest concise Abelian subgroup C2      NOp   2
                         Standard orientation:                         
 ---------------------------------------------------------------------
 Center     Atomic      Atomic             Coordinates (Angstroms)
 Number     Number       Type             X           Y           Z
 ---------------------------------------------------------------------
      1          8           0       -0.000000   -0.000000   -0.381883
      2          8           0        0.000000   -1.009158    0.190942
      3          8           0       -0.000000    1.009158    0.190942
 ---------------------------------------------------------------------
 Rotational constants (GHZ):         144.4384899          15.5126949          14.0082128
 Standard basis: VSTO-6G (5D, 7F)
 There are     5 symmetry adapted cartesian basis functions of A1  symmetry.
 There are     1 symmetry adapted cartesian basis functions of A2  symmetry.
 There are     2 symmetry adapted cartesian basis functions of B1  symmetry.
 There are     4 symmetry adapted cartesian basis functions of B2  symmetry.
 There are     5 symmetry adapted basis functions of A1  symmetry.
 There are     1 symmetry adapted basis functions of A2  symmetry.
 There are     2 symmetry adapted basis functions of B1  symmetry.
 There are     4 symmetry adapted basis functions of B2  symmetry.
    12 basis functions,    72 primitive gaussians,    12 cartesian basis functions
     9 alpha electrons        9 beta electrons
       nuclear repulsion energy        70.5817613452 Hartrees.
 Integral buffers will be    131072 words long.
 Regular integral format.
 Two-electron integral symmetry is turned off.
 Do NDO integrals.
 One-electron integrals computed using PRISM.
 NBasis=    12 RedAO= T EigKep=  1.00D+00  NBF=     5     1     2     4
 NBsUse=    12 1.00D-06 EigRej= -1.00D+00 NBFU=     5     1     2     4
 Initial guess from the checkpoint file:  "/home/user/opt/gaussian/newcalc/Gau-5350.chk"
 B after Tr=     0.000000   -0.000000   -0.000000
         Rot=    1.000000    0.000000    0.000000   -0.000000 Ang=   0.00 deg.
 Initial guess orbital symmetries:
       Occupied  (A1) (B2) (A1) (B2) (A1) (B1) (B2) (A2) (A1)
       Virtual   (B1) (A1) (B2)
 Keep J ints in memory in canonical form, NReq=859527.
 Overlap will be assumed to be unity.
 Requested convergence on RMS density matrix=1.00D-08 within 128 cycles.
 Requested convergence on MAX density matrix=1.00D-06.
 Requested convergence on             energy=1.00D-06.
 No special actions if energy rises.
 SCF Done:  E(RAM1) =  0.600708966667E-01 A.U. after    2 cycles
            NFock=  1  Conv=0.65D-11     -V/T= 1.0010
 Range of M.O.s used for correlation:     1    12
 NBasis=    12 NAE=     9 NBE=     9 NFC=     0 NFV=     0
 NROrb=     12 NOA=     9 NOB=     9 NVA=     3 NVB=     3
 Symmetrizing basis deriv contribution to polar:
 IMax=3 JMax=2 DiffMx= 0.00D+00
 G2DrvN: will do     4 centers at a time, making    1 passes.
 Calling FoFCou, ICntrl=  3107 FMM=F I1Cent=   0 AccDes= 0.00D+00.
 End of G2Drv F.D. properties file   721 does not exist.
 End of G2Drv F.D. properties file   722 does not exist.
 End of G2Drv F.D. properties file   788 does not exist.
          IDoAtm=111
          Differentiating once with respect to electric field.
                with respect to dipole field.
          Differentiating once with respect to nuclear coordinates.
          Electric field/nuclear overlap derivatives assumed to be zero.
 Keep J ints in memory in canonical form, NReq=860004.
          There are     9 degrees of freedom in the 1st order CPHF.  IDoFFX=4 NUNeed=     9.
 LinEq1:  Iter=  0 NonCon=     9 RMS=7.81D-01 Max=3.57D+00 NDo=     9
 AX will form     9 AO Fock derivatives at one time.
 LinEq1:  Iter=  1 NonCon=     9 RMS=1.12D-01 Max=4.16D-01 NDo=     9
 LinEq1:  Iter=  2 NonCon=     9 RMS=1.24D-02 Max=5.11D-02 NDo=     9
 LinEq1:  Iter=  3 NonCon=     9 RMS=1.90D-03 Max=6.52D-03 NDo=     9
 LinEq1:  Iter=  4 NonCon=     9 RMS=1.38D-04 Max=4.43D-04 NDo=     9
 LinEq1:  Iter=  5 NonCon=     9 RMS=2.10D-05 Max=5.22D-05 NDo=     9
 LinEq1:  Iter=  6 NonCon=     7 RMS=2.85D-06 Max=9.79D-06 NDo=     9
 LinEq1:  Iter=  7 NonCon=     3 RMS=2.34D-07 Max=6.38D-07 NDo=     9
 LinEq1:  Iter=  8 NonCon=     2 RMS=3.02D-08 Max=7.98D-08 NDo=     9
 LinEq1:  Iter=  9 NonCon=     0 RMS=3.80D-09 Max=1.31D-08 NDo=     9
 Linear equations converged to 1.000D-08 1.000D-07 after     9 iterations.
 Isotropic polarizability for W=    0.000000       11.10 Bohr**3.
 End of Minotr F.D. properties file   721 does not exist.
 End of Minotr F.D. properties file   722 does not exist.
 End of Minotr F.D. properties file   788 does not exist.

 **********************************************************************

            Population analysis using the SCF density.

 **********************************************************************

 Orbital symmetries:
       Occupied  (A1) (B2) (A1) (B2) (A1) (B1) (B2) (A2) (A1)
       Virtual   (B1) (A1) (B2)
 The electronic state is 1-A1.
 Alpha  occ. eigenvalues --   -1.73458  -1.48142  -1.12357  -0.82155  -0.78760
 Alpha  occ. eigenvalues --   -0.78743  -0.50543  -0.48371  -0.48149
 Alpha virt. eigenvalues --   -0.07143   0.07971   0.21892
          Condensed to atoms (all electrons):
               1          2          3
     1  O    5.446802   0.000000   0.000000
     2  O    0.000000   6.276599   0.000000
     3  O    0.000000   0.000000   6.276599
 Mulliken charges:
               1
     1  O    0.553198
     2  O   -0.276599
     3  O   -0.276599
 Sum of Mulliken charges =   0.00000
 Mulliken charges with hydrogens summed into heavy atoms:
               1
     1  O    0.553198
     2  O   -0.276599
     3  O   -0.276599
 APT charges:
               1
     1  O    1.174794
     2  O   -0.587397
     3  O   -0.587397
 Sum of APT charges =  -0.00000
 APT charges with hydrogens summed into heavy atoms:
               1
     1  O    1.174794
     2  O   -0.587397
     3  O   -0.587397
 Charge=              0.0000 electrons
 Dipole moment (field-independent basis, Debye):
    X=              0.0000    Y=             -0.0000    Z=             -1.2002  Tot=              1.2002
 N-N= 7.058176134519D+01 E-N=-6.669591862915D+01  KE=-5.793389948320D+01
 Symmetry A1   KE=-2.661491128336D+01
 Symmetry A2   KE=-5.736997145145D+00
 Symmetry B1   KE=-6.113001824286D+00
 Symmetry B2   KE=-1.946898923041D+01
  Exact polarizability:   1.297  -0.000  28.237  -0.000   0.000   3.759
 Approx polarizability:   0.961  -0.000  31.526  -0.000   0.000   3.303
 Calling FoFJK, ICntrl=    100127 FMM=F ISym2X=1 I1Cent= 0 IOpClX= 0 NMat=1 NMatS=1 NMatT=0.
 Full mass-weighted force constant matrix:
 Low frequencies ---   -2.3524   -0.2942   -0.2189   -0.0008    0.9509    6.5205
 Low frequencies ---  922.5269 1695.4681 1699.2784
 Diagonal vibrational polarizability:
        0.0000000       5.9111556       1.2442388
 Harmonic frequencies (cm**-1), IR intensities (KM/Mole), Raman scattering
 activities (A**4/AMU), depolarization ratios for plane and unpolarized
 incident light, reduced masses (AMU), force constants (mDyne/A),
 and normal coordinates:
                      1                      2                      3
                     A1                     B2                     A1
 Frequencies --    922.5269              1695.4681              1699.2784
 Red. masses --     15.9949                15.9949                15.9949
 Frc consts  --      8.0203                27.0901                27.2120
 IR Inten    --     39.2473               631.4203                 0.3434
  Atom  AN      X      Y      Z        X      Y      Z        X      Y      Z
     1   8    -0.00  -0.00   0.64    -0.00   0.78  -0.00    -0.00   0.00   0.51
     2   8     0.00  -0.44  -0.32     0.00  -0.39   0.22    -0.00   0.55  -0.26
     3   8     0.00   0.44  -0.32     0.00  -0.39  -0.22     0.00  -0.55  -0.26

 -------------------
 - Thermochemistry -
 -------------------
 Temperature   298.150 Kelvin.  Pressure   1.00000 Atm.
 Atom     1 has atomic number  8 and mass  15.99491
 Atom     2 has atomic number  8 and mass  15.99491
 Atom     3 has atomic number  8 and mass  15.99491
 Molecular mass:    47.98474 amu.
 Principal axes and moments of inertia in atomic units:
                           1         2         3
     Eigenvalues --    12.49488 116.33963 128.83451
           X            0.00000   0.00000   1.00000
           Y            1.00000   0.00000  -0.00000
           Z           -0.00000   1.00000  -0.00000
 This molecule is an asymmetric top.
 Rotational symmetry number  2.
 Rotational temperatures (Kelvin)      6.93195     0.74449     0.67229
 Rotational constants (GHZ):         144.43849    15.51269    14.00821
 Zero-point vibrational energy      25823.0 (Joules/Mol)
                                    6.17185 (Kcal/Mol)
 Vibrational temperatures:   1327.31  2439.40  2444.88
          (Kelvin)
 
 Zero-point correction=                           0.009835 (Hartree/Particle)
 Thermal correction to Energy=                    0.012722
 Thermal correction to Enthalpy=                  0.013666
 Thermal correction to Gibbs Free Energy=        -0.013015
 Sum of electronic and zero-point Energies=              0.069906
 Sum of electronic and thermal Energies=                 0.072793
 Sum of electronic and thermal Enthalpies=               0.073737
 Sum of electronic and thermal Free Energies=            0.047056
 
                     E (Thermal)             CV                S
                      KCal/Mol        Cal/Mol-Kelvin    Cal/Mol-Kelvin
 Total                    7.983              6.506             56.155
 Electronic               0.000              0.000              0.000
 Translational            0.889              2.981             37.529
 Rotational               0.889              2.981             18.488
 Vibrational              6.206              0.544              0.138
                       Q            Log10(Q)             Ln(Q)
 Total Bot       0.969402D+06          5.986504         13.784435
 Total V=0       0.323969D+11         10.510503         24.201328
 Vib (Bot)       0.302924D-04         -4.518666        -10.404613
 Vib (V=0)       0.101236D+01          0.005333          0.012280
 Electronic      0.100000D+01          0.000000          0.000000
 Translational   0.130650D+08          7.116109         16.385446
 Rotational      0.244941D+04          3.389062          7.803603

     ==================================================
      Anharmonic Data: Displacement Vectors Definition
     ==================================================

 Framework definition based on atomic masses: C2V 
 ***** Axes restored to original set *****
 -------------------------------------------------------------------
 Center     Atomic                   Forces (Hartrees/Bohr)
 Number     Number              X              Y              Z
 -------------------------------------------------------------------
      1        8           0.000009256    0.000015051   -0.000000000
      2        8          -0.000001302   -0.000009571    0.000000000
      3        8          -0.000007954   -0.000005480   -0.000000000
 -------------------------------------------------------------------
 Cartesian Forces:  Max     0.000015051 RMS     0.000007445
 FormGI is forming the generalized inverse of G from B-inverse, IUseBI=4.
 NDeriv=      3 NFrqRd=  0 NDerD0=      0 MskFDP=       0 MskDFD=       0 MskDF0=       0
 At 1st pt F.D. properties file   721 does not exist.
 At 1st pt F.D. properties file   722 does not exist.
 D2Numr ... symmetry will not be used.
 Standard basis: VSTO-6G (5D, 7F)
    12 basis functions,    72 primitive gaussians,    12 cartesian basis functions
     9 alpha electrons        9 beta electrons
       nuclear repulsion energy        70.5860495072 Hartrees.
 Integral buffers will be    131072 words long.
 Regular integral format.
 Two-electron integral symmetry is turned off.
 Do NDO integrals.
 One-electron integrals computed using PRISM.
 NBasis=    12 RedAO= F EigKep=  0.00D+00  NBF=    12
 NBsUse=    12 1.00D-04 EigRej=  0.00D+00 NBFU=    12
 Initial guess from the checkpoint file:  "/home/user/opt/gaussian/newcalc/Gau-5350.chk"
 B after Tr=    -0.000000   -0.000000    0.000000
         Rot=    1.000000   -0.000000    0.000000    0.000000 Ang=   0.00 deg.
 Keep J ints in memory in canonical form, NReq=859527.
 Overlap will be assumed to be unity.
 Requested convergence on RMS density matrix=1.00D-08 within 128 cycles.
 Requested convergence on MAX density matrix=1.00D-06.
 Requested convergence on             energy=1.00D-06.
 No special actions if energy rises.
 SCF Done:  E(RAM1) =  0.600767540058E-01 A.U. after    9 cycles
            NFock=  8  Conv=0.21D-08     -V/T= 1.0010
 Range of M.O.s used for correlation:     1    12
 NBasis=    12 NAE=     9 NBE=     9 NFC=     0 NFV=     0
 NROrb=     12 NOA=     9 NOB=     9 NVA=     3 NVB=     3
 Symmetrizing basis deriv contribution to polar:
 IMax=3 JMax=2 DiffMx= 0.00D+00
 G2DrvN: will do     4 centers at a time, making    1 passes.
 Calling FoFCou, ICntrl=  3107 FMM=F I1Cent=   0 AccDes= 0.00D+00.
 End of G2Drv F.D. properties file   721 does not exist.
 End of G2Drv F.D. properties file   722 does not exist.
 End of G2Drv F.D. properties file   788 does not exist.
          IDoAtm=111
          Differentiating once with respect to electric field.
                with respect to dipole field.
          Differentiating once with respect to nuclear coordinates.
          Electric field/nuclear overlap derivatives assumed to be zero.
 Keep J ints in memory in canonical form, NReq=859995.
          There are    12 degrees of freedom in the 1st order CPHF.  IDoFFX=5 NUNeed=    12.
 LinEq1:  Iter=  0 NonCon=    12 RMS=7.80D-01 Max=3.57D+00 NDo=    12
 AX will form    12 AO Fock derivatives at one time.
 LinEq1:  Iter=  1 NonCon=    12 RMS=1.11D-01 Max=4.15D-01 NDo=    12
 LinEq1:  Iter=  2 NonCon=    12 RMS=1.24D-02 Max=5.09D-02 NDo=    12
 LinEq1:  Iter=  3 NonCon=    12 RMS=1.89D-03 Max=6.49D-03 NDo=    12
 LinEq1:  Iter=  4 NonCon=    12 RMS=1.36D-04 Max=4.40D-04 NDo=    12
 LinEq1:  Iter=  5 NonCon=    12 RMS=2.10D-05 Max=5.24D-05 NDo=    12
 LinEq1:  Iter=  6 NonCon=    10 RMS=2.83D-06 Max=9.78D-06 NDo=    12
 LinEq1:  Iter=  7 NonCon=     6 RMS=2.32D-07 Max=6.34D-07 NDo=    12
 LinEq1:  Iter=  8 NonCon=     4 RMS=2.94D-08 Max=7.82D-08 NDo=    12
 LinEq1:  Iter=  9 NonCon=     0 RMS=3.76D-09 Max=1.28D-08 NDo=    12
 Linear equations converged to 1.000D-08 1.000D-07 after     9 iterations.
 Isotropic polarizability for W=    0.000000       11.10 Bohr**3.
 End of Minotr F.D. properties file   721 does not exist.
 End of Minotr F.D. properties file   722 does not exist.
 End of Minotr F.D. properties file   788 does not exist.

 **********************************************************************

            Population analysis using the SCF density.

 **********************************************************************

 Alpha  occ. eigenvalues --   -1.73474  -1.48066  -1.12380  -0.82147  -0.78761
 Alpha  occ. eigenvalues --   -0.78731  -0.50518  -0.48365  -0.48188
 Alpha virt. eigenvalues --   -0.07155   0.08021   0.21833
          Condensed to atoms (all electrons):
               1          2          3
     1  O    5.446646   0.000000   0.000000
     2  O    0.000000   6.276677   0.000000
     3  O    0.000000   0.000000   6.276677
 Mulliken charges:
               1
     1  O    0.553354
     2  O   -0.276677
     3  O   -0.276677
 Sum of Mulliken charges =   0.00000
 Mulliken charges with hydrogens summed into heavy atoms:
               1
     1  O    0.553354
     2  O   -0.276677
     3  O   -0.276677
 APT charges:
               1
     1  O    1.172653
     2  O   -0.586327
     3  O   -0.586327
 Sum of APT charges =  -0.00000
 APT charges with hydrogens summed into heavy atoms:
               1
     1  O    1.172653
     2  O   -0.586327
     3  O   -0.586327
 Charge=              0.0000 electrons
 Dipole moment (field-independent basis, Debye):
    X=             -0.0000    Y=             -0.0000    Z=             -1.2098  Tot=              1.2098
 N-N= 7.058604950723D+01 E-N=-6.670602399836D+01  KE=-5.793331783894D+01
  Exact polarizability:   1.295  -0.000  28.207   0.000  -0.000   3.790
 Approx polarizability:   0.961  -0.000  31.455   0.000  -0.000   3.334
 Calling FoFJK, ICntrl=    100127 FMM=F ISym2X=0 I1Cent= 0 IOpClX= 0 NMat=1 NMatS=1 NMatT=0.
 -------------------------------------------------------------------
 Center     Atomic                   Forces (Hartrees/Bohr)
 Number     Number              X              Y              Z
 -------------------------------------------------------------------
      1        8           0.000000000    0.000000000    0.001569197
      2        8          -0.000000000   -0.001087221   -0.000784598
      3        8          -0.000000000    0.001087221   -0.000784598
 -------------------------------------------------------------------
 Cartesian Forces:  Max     0.001569197 RMS     0.000820411
 NDeriv=      3 NFrqRd=  0 NDerD0=      0 MskFDP=       0 MskDFD=       0 MskDF0=       0
 Re-enter D2Numr:  normal mode   1 step-up   number 1
 Standard basis: VSTO-6G (5D, 7F)
    12 basis functions,    72 primitive gaussians,    12 cartesian basis functions
     9 alpha electrons        9 beta electrons
       nuclear repulsion energy        70.5773878503 Hartrees.
 Integral buffers will be    131072 words long.
 Regular integral format.
 Two-electron integral symmetry is turned off.
 Do NDO integrals.
 One-electron integrals computed using PRISM.
 NBasis=    12 RedAO= F EigKep=  0.00D+00  NBF=    12
 NBsUse=    12 1.00D-04 EigRej=  0.00D+00 NBFU=    12
 Initial guess from the checkpoint file:  "/home/user/opt/gaussian/newcalc/Gau-5350.chk"
 B after Tr=    -0.000000    0.000000    0.000000
         Rot=    1.000000    0.000000    0.000000   -0.000000 Ang=   0.00 deg.
 Keep J ints in memory in canonical form, NReq=859527.
 Overlap will be assumed to be unity.
 Requested convergence on RMS density matrix=1.00D-08 within 128 cycles.
 Requested convergence on MAX density matrix=1.00D-06.
 Requested convergence on             energy=1.00D-06.
 No special actions if energy rises.
 SCF Done:  E(RAM1) =  0.600765406609E-01 A.U. after    9 cycles
            NFock=  8  Conv=0.22D-08     -V/T= 1.0010
 Range of M.O.s used for correlation:     1    12
 NBasis=    12 NAE=     9 NBE=     9 NFC=     0 NFV=     0
 NROrb=     12 NOA=     9 NOB=     9 NVA=     3 NVB=     3
 Symmetrizing basis deriv contribution to polar:
 IMax=3 JMax=2 DiffMx= 0.00D+00
 G2DrvN: will do     4 centers at a time, making    1 passes.
 Calling FoFCou, ICntrl=  3107 FMM=F I1Cent=   0 AccDes= 0.00D+00.
 End of G2Drv F.D. properties file   721 does not exist.
 End of G2Drv F.D. properties file   722 does not exist.
 End of G2Drv F.D. properties file   788 does not exist.
          IDoAtm=111
          Differentiating once with respect to electric field.
                with respect to dipole field.
          Differentiating once with respect to nuclear coordinates.
          Electric field/nuclear overlap derivatives assumed to be zero.
 Keep J ints in memory in canonical form, NReq=859995.
          There are    12 degrees of freedom in the 1st order CPHF.  IDoFFX=5 NUNeed=    12.
 LinEq1:  Iter=  0 NonCon=    12 RMS=7.81D-01 Max=3.57D+00 NDo=    12
 AX will form    12 AO Fock derivatives at one time.
 LinEq1:  Iter=  1 NonCon=    12 RMS=1.12D-01 Max=4.17D-01 NDo=    12
 LinEq1:  Iter=  2 NonCon=    12 RMS=1.25D-02 Max=5.13D-02 NDo=    12
 LinEq1:  Iter=  3 NonCon=    12 RMS=1.91D-03 Max=6.55D-03 NDo=    12
 LinEq1:  Iter=  4 NonCon=    12 RMS=1.39D-04 Max=4.46D-04 NDo=    12
 LinEq1:  Iter=  5 NonCon=    12 RMS=2.09D-05 Max=5.21D-05 NDo=    12
 LinEq1:  Iter=  6 NonCon=    10 RMS=2.87D-06 Max=9.80D-06 NDo=    12
 LinEq1:  Iter=  7 NonCon=     6 RMS=2.35D-07 Max=6.42D-07 NDo=    12
 LinEq1:  Iter=  8 NonCon=     4 RMS=3.11D-08 Max=8.13D-08 NDo=    12
 LinEq1:  Iter=  9 NonCon=     0 RMS=3.84D-09 Max=1.33D-08 NDo=    12
 Linear equations converged to 1.000D-08 1.000D-07 after     9 iterations.
 Isotropic polarizability for W=    0.000000       11.10 Bohr**3.
 End of Minotr F.D. properties file   721 does not exist.
 End of Minotr F.D. properties file   722 does not exist.
 End of Minotr F.D. properties file   788 does not exist.

 **********************************************************************

            Population analysis using the SCF density.

 **********************************************************************

 Alpha  occ. eigenvalues --   -1.73440  -1.48218  -1.12333  -0.82162  -0.78760
 Alpha  occ. eigenvalues --   -0.78755  -0.50568  -0.48376  -0.48110
 Alpha virt. eigenvalues --   -0.07131   0.07921   0.21951
          Condensed to atoms (all electrons):
               1          2          3
     1  O    5.446969   0.000000   0.000000
     2  O    0.000000   6.276516   0.000000
     3  O    0.000000   0.000000   6.276516
 Mulliken charges:
               1
     1  O    0.553031
     2  O   -0.276516
     3  O   -0.276516
 Sum of Mulliken charges =   0.00000
 Mulliken charges with hydrogens summed into heavy atoms:
               1
     1  O    0.553031
     2  O   -0.276516
     3  O   -0.276516
 APT charges:
               1
     1  O    1.176905
     2  O   -0.588452
     3  O   -0.588452
 Sum of APT charges =  -0.00000
 APT charges with hydrogens summed into heavy atoms:
               1
     1  O    1.176905
     2  O   -0.588452
     3  O   -0.588452
 Charge=              0.0000 electrons
 Dipole moment (field-independent basis, Debye):
    X=             -0.0000    Y=             -0.0000    Z=             -1.1905  Tot=              1.1905
 N-N= 7.057738785035D+01 E-N=-6.668571778027D+01  KE=-5.793445150757D+01
  Exact polarizability:   1.299   0.000  28.268   0.000  -0.000   3.728
 Approx polarizability:   0.961  -0.000  31.597   0.000  -0.000   3.273
 Calling FoFJK, ICntrl=    100127 FMM=F ISym2X=0 I1Cent= 0 IOpClX= 0 NMat=1 NMatS=1 NMatT=0.
 -------------------------------------------------------------------
 Center     Atomic                   Forces (Hartrees/Bohr)
 Number     Number              X              Y              Z
 -------------------------------------------------------------------
      1        8           0.000000000   -0.000000000   -0.001525197
      2        8          -0.000000000    0.001073417    0.000762599
      3        8          -0.000000000   -0.001073417    0.000762599
 -------------------------------------------------------------------
 Cartesian Forces:  Max     0.001525197 RMS     0.000802343
 NDeriv=      3 NFrqRd=  0 NDerD0=      0 MskFDP=       0 MskDFD=       0 MskDF0=       0
 Re-enter D2Numr:  normal mode   1 step-down number 1
 Standard basis: VSTO-6G (5D, 7F)
    12 basis functions,    72 primitive gaussians,    12 cartesian basis functions
     9 alpha electrons        9 beta electrons
       nuclear repulsion energy        70.5818366105 Hartrees.
 Integral buffers will be    131072 words long.
 Regular integral format.
 Two-electron integral symmetry is turned off.
 Do NDO integrals.
 One-electron integrals computed using PRISM.
 NBasis=    12 RedAO= F EigKep=  0.00D+00  NBF=    12
 NBsUse=    12 1.00D-04 EigRej=  0.00D+00 NBFU=    12
 Initial guess from the checkpoint file:  "/home/user/opt/gaussian/newcalc/Gau-5350.chk"
 B after Tr=     0.000000   -0.000000   -0.000000
         Rot=    1.000000    0.000000    0.000000    0.000000 Ang=   0.00 deg.
 Keep J ints in memory in canonical form, NReq=859527.
 Overlap will be assumed to be unity.
 Requested convergence on RMS density matrix=1.00D-08 within 128 cycles.
 Requested convergence on MAX density matrix=1.00D-06.
 Requested convergence on             energy=1.00D-06.
 No special actions if energy rises.
 SCF Done:  E(RAM1) =  0.600903205244E-01 A.U. after   10 cycles
            NFock=  9  Conv=0.28D-08     -V/T= 1.0010
 Range of M.O.s used for correlation:     1    12
 NBasis=    12 NAE=     9 NBE=     9 NFC=     0 NFV=     0
 NROrb=     12 NOA=     9 NOB=     9 NVA=     3 NVB=     3
 Symmetrizing basis deriv contribution to polar:
 IMax=3 JMax=2 DiffMx= 0.00D+00
 G2DrvN: will do     4 centers at a time, making    1 passes.
 Calling FoFCou, ICntrl=  3107 FMM=F I1Cent=   0 AccDes= 0.00D+00.
 End of G2Drv F.D. properties file   721 does not exist.
 End of G2Drv F.D. properties file   722 does not exist.
 End of G2Drv F.D. properties file   788 does not exist.
          IDoAtm=111
          Differentiating once with respect to electric field.
                with respect to dipole field.
          Differentiating once with respect to nuclear coordinates.
          Electric field/nuclear overlap derivatives assumed to be zero.
 Keep J ints in memory in canonical form, NReq=859995.
          There are    12 degrees of freedom in the 1st order CPHF.  IDoFFX=5 NUNeed=    12.
 LinEq1:  Iter=  0 NonCon=    12 RMS=7.81D-01 Max=3.57D+00 NDo=    12
 AX will form    12 AO Fock derivatives at one time.
 LinEq1:  Iter=  1 NonCon=    12 RMS=1.12D-01 Max=4.16D-01 NDo=    12
 LinEq1:  Iter=  2 NonCon=    12 RMS=1.24D-02 Max=5.11D-02 NDo=    12
 LinEq1:  Iter=  3 NonCon=    12 RMS=1.90D-03 Max=6.52D-03 NDo=    12
 LinEq1:  Iter=  4 NonCon=    12 RMS=1.38D-04 Max=4.43D-04 NDo=    12
 LinEq1:  Iter=  5 NonCon=    12 RMS=2.10D-05 Max=5.27D-05 NDo=    12
 LinEq1:  Iter=  6 NonCon=    12 RMS=2.87D-06 Max=9.83D-06 NDo=    12
 LinEq1:  Iter=  7 NonCon=    11 RMS=2.35D-07 Max=6.45D-07 NDo=    12
 LinEq1:  Iter=  8 NonCon=     5 RMS=3.12D-08 Max=8.14D-08 NDo=    12
 LinEq1:  Iter=  9 NonCon=     0 RMS=3.83D-09 Max=1.33D-08 NDo=    12
 Linear equations converged to 1.000D-08 1.000D-07 after     9 iterations.
 Isotropic polarizability for W=    0.000000       11.10 Bohr**3.
 End of Minotr F.D. properties file   721 does not exist.
 End of Minotr F.D. properties file   722 does not exist.
[...]
 QZvib              0.10124D+01          0.10128D+01
 Energy             0.33401D+02          0.33264D+02         kJ/mol
 Enthalpy           0.35880D+02          0.35743D+02         kJ/mol
 Entropy            0.23495D+03          0.23497D+03         J/(mol K)
 Sp.Heat(V)         0.27219D+02          0.27283D+02         J/(mol K)
 Sp.Heat(P)         0.35534D+02          0.35597D+02         J/(mol K)

 T =  298.15 K;  P =   1.00 atm
                    Harmonic value     SPT anharmonic value
 Qvib               0.30292D-04          0.32091D-04
 QZvib              0.10124D+01          0.10128D+01
 Energy             0.33401D+02          0.33264D+02         kJ/mol
 Enthalpy           0.35880D+02          0.35743D+02         kJ/mol
 Entropy            0.23495D+03          0.23497D+03         J/(mol K)
 Sp.Heat(V)         0.27219D+02          0.27283D+02         J/(mol K)
 Sp.Heat(P)         0.35534D+02          0.35597D+02         J/(mol K)

 T =  500.00 K;  P =   1.00 atm
                    Harmonic value     SPT anharmonic value
 Qvib               0.21908D-02          0.22726D-02
 QZvib              0.10921D+01          0.10949D+01
 Energy             0.39439D+02          0.39325D+02         kJ/mol
 Enthalpy           0.43596D+02          0.43483D+02         kJ/mol
 Entropy            0.25459D+03          0.25467D+03         J/(mol K)
 Sp.Heat(V)         0.32758D+02          0.32918D+02         J/(mol K)
 Sp.Heat(P)         0.41072D+02          0.41232D+02         J/(mol K)

 T = 1000.00 K;  P =   1.00 atm
                    Harmonic value     SPT anharmonic value
 Qvib               0.73119D-01          0.75117D-01
 QZvib              0.16325D+01          0.16488D+01
 Energy             0.58618D+02          0.58588D+02         kJ/mol
 Enthalpy           0.66932D+02          0.66902D+02         kJ/mol
 Entropy            0.28655D+03          0.28674D+03         J/(mol K)
 Sp.Heat(V)         0.42485D+02          0.42627D+02         J/(mol K)
 Sp.Heat(P)         0.50799D+02          0.50941D+02         J/(mol K)

 T = 1500.00 K;  P =   1.00 atm
                    Harmonic value     SPT anharmonic value
 Qvib               0.33249D+00          0.34153D+00
 QZvib              0.26364D+01          0.26773D+01
 Energy             0.80914D+02          0.80939D+02         kJ/mol
 Enthalpy           0.93386D+02          0.93411D+02         kJ/mol
 Entropy            0.30795D+03          0.30819D+03         J/(mol K)
 Sp.Heat(V)         0.46132D+02          0.46215D+02         J/(mol K)
 Sp.Heat(P)         0.54446D+02          0.54530D+02         J/(mol K)

 T = 2000.00 K;  P =   1.00 atm
                    Harmonic value     SPT anharmonic value
 Qvib               0.87767D+00          0.90225D+00
 QZvib              0.41471D+01          0.42270D+01
 Energy             0.10441D+03          0.10447D+03         kJ/mol
 Enthalpy           0.12104D+03          0.12110D+03         kJ/mol
 Entropy            0.32385D+03          0.32411D+03         J/(mol K)
 Sp.Heat(V)         0.47667D+02          0.47720D+02         J/(mol K)
 Sp.Heat(P)         0.55982D+02          0.56034D+02         J/(mol K)

     ==================================================
               Anharmonic Transition Moments
     ==================================================

 ## DEPERTURBED TRANSITIONS MOMENTS ##

 Electric dipole : Fundamental Bands
 ------------------------------------------------------------------------
   Mode(n)                            X               Y               Z
      1(1)                      -0.109243D-16    0.204487D-12    0.351303D-02
      2(1)                      -0.144406D-15    0.148425D-13    0.509552D-01
      3(1)                      -0.706363D-16    0.151980D+00   -0.797218D-13

 Electric dipole : Overtones
 ------------------------------------------------------------------------
   Mode(n)                            X               Y               Z
      1(2)                      -0.800239D-17   -0.112358D-15   -0.131852D-02
      2(2)                       0.136567D-15    0.790853D-15   -0.453579D-03
      3(2)                      -0.372051D-16    0.452540D-14    0.153284D-02

 Electric dipole : Combination Bands
 ------------------------------------------------------------------------
   Mode(n)     Mode(n)                X               Y               Z
      2(1)        1(1)          -0.262076D-16   -0.122485D-14   -0.291702D-02
      3(1)        1(1)          -0.364021D-16   -0.121791D-01    0.139089D-14
      3(1)        2(1)           0.851600D-16   -0.538308D-02    0.179934D-14

 ## AFTER VARIATIONAL CORRECTION

 Electric dipole : Fundamental Bands
 ------------------------------------------------------------------------
   Mode(n)                            X               Y               Z
      1(1)                      -0.109243D-16    0.204487D-12    0.351303D-02
      2(1)                      -0.144406D-15    0.148425D-13    0.509552D-01
      3(1)                      -0.706363D-16    0.151980D+00   -0.797218D-13

 Electric dipole : Overtones
 ------------------------------------------------------------------------
   Mode(n)                            X               Y               Z
      1(2)                       0.776117D-17   -0.193660D-14   -0.182657D-02
      2(2)                       0.136567D-15    0.790853D-15   -0.453579D-03
      3(2)                      -0.372561D-16    0.409163D-14    0.867018D-03

 Electric dipole : Combination Bands
 ------------------------------------------------------------------------
   Mode(n)     Mode(n)                X               Y               Z
      2(1)        1(1)          -0.262076D-16   -0.122485D-14   -0.291702D-02
      3(1)        1(1)          -0.364021D-16   -0.121791D-01    0.139089D-14
      3(1)        2(1)           0.851600D-16   -0.538308D-02    0.179934D-14

     ==================================================
              Anharmonic Infrared Spectroscopy
     ==================================================

 Units: Transition energies (E) in cm^-1
        Integrated intensity (I) in km.mol^-1

 Fundamental Bands
 -----------------
   Mode(n)                  E(harm)   E(anharm)        I(harm)       I(anharm)
      1(1)                  1699.278   1678.405      0.34337764      0.33544291
      2(1)                   922.527    915.844     39.24733961     38.50836376
      3(1)                  1695.468   1670.498    631.42026002    624.84955929

 Overtones
 ---------
   Mode(n)                  E(harm)   E(anharm)                      I(anharm)
      1(2)                  3398.557   3353.014                      0.18116159
      2(2)                  1845.054   1830.055                      0.00609715
      3(2)                  3390.936   3321.621                      0.04043552

 Combination Bands
 -----------------
   Mode(n)     Mode(n)      E(harm)   E(anharm)                      I(anharm)
      2(1)        1(1)      2621.805   2588.028                      0.35661894
      3(1)        1(1)      3394.746   3331.281                      8.00199163
      3(1)        2(1)      2617.995   2582.464                      1.21186058

 Units: Transition energies (E) in cm^-1
        Dipole strengths (DS) in 10^-40 esu^2.cm^2

 Fundamental Bands
 -----------------
   Mode(n)                  E(harm)   E(anharm)       DS(harm)      DS(anharm)
      1(1)                  1699.278   1678.405      0.80614818      0.79731369
      2(1)                   922.527    915.844    169.72217505    167.74165109
      3(1)                  1695.468   1670.498   1485.71767082   1492.23392852

 Overtones
 ---------
   Mode(n)                  E(harm)   E(anharm)                     DS(anharm)
      1(2)                  3398.557   3353.014                      0.21554510
      2(2)                  1845.054   1830.055                      0.01329139
      3(2)                  3390.936   3321.621                      0.04856467

 Combination Bands
 -----------------
   Mode(n)     Mode(n)      E(harm)   E(anharm)                     DS(anharm)
      2(1)        1(1)      2621.805   2588.028                      0.54972155
      3(1)        1(1)      3394.746   3331.281                      9.58284032
      3(1)        2(1)      2617.995   2582.464                      1.87208591


 GradGradGradGradGradGradGradGradGradGradGradGradGradGradGradGradGradGrad
 Berny optimization.
 Internal  Forces:  Max     0.000021075 RMS     0.000012193
 Search for a local minimum.
 Step number   1 out of a maximum of    2
 All quantities printed in internal units (Hartrees-Bohrs-Radians)
 Second derivative matrix not updated -- analytic derivatives used.
 The second derivative matrix:
                          R1        R2        A1
           R1           1.01351
           R2           0.32100   1.01351
           A1           0.24164   0.24164   0.62823
 ITU=  0
     Eigenvalues ---    0.48996   0.69250   1.47278
 Angle between quadratic step and forces=  12.04 degrees.
 Linear search not attempted -- first point.
 Iteration  1 RMS(Cart)=  0.00002297 RMS(Int)=  0.00000000
 Iteration  2 RMS(Cart)=  0.00000000 RMS(Int)=  0.00000000
 ClnCor:  largest displacement from symmetrization is 2.04D-15 for atom     3.
 Variable       Old X    -DE/DX   Delta X   Delta X   Delta X     New X
                                 (Linear)    (Quad)   (Total)
    R1        2.19284  -0.00000   0.00000  -0.00001  -0.00001   2.19283
    R2        2.19284  -0.00000   0.00000  -0.00001  -0.00001   2.19283
    A1        2.10904   0.00002   0.00000   0.00004   0.00004   2.10908
         Item               Value     Threshold  Converged?
 Maximum Force            0.000021     0.000450     YES
 RMS     Force            0.000012     0.000300     YES
 Maximum Displacement     0.000024     0.001800     YES
 RMS     Displacement     0.000023     0.001200     YES
 Predicted change in Energy=-4.251383D-10
 Optimization completed.
    -- Stationary point found.
                           ----------------------------
                           !   Optimized Parameters   !
                           ! (Angstroms and Degrees)  !
 --------------------------                            --------------------------
 ! Name  Definition              Value          Derivative Info.                !
 --------------------------------------------------------------------------------
 ! R1    R(1,2)                  1.1604         -DE/DX =    0.0                 !
 ! R2    R(1,3)                  1.1604         -DE/DX =    0.0                 !
 ! A1    A(2,1,3)              120.8392         -DE/DX =    0.0                 !
 --------------------------------------------------------------------------------
 GradGradGradGradGradGradGradGradGradGradGradGradGradGradGradGradGradGrad


 ----------------------------------------------------------------------

 Electric dipole moment (input orientation):
 (Debye = 10**-18 statcoulomb cm , SI units = C m)
                  (au)            (Debye)         (10**-30 SI)
   Tot        0.472191D+00      0.120019D+01      0.400340D+01
   x         -0.247364D+00     -0.628737D+00     -0.209724D+01
   y         -0.402213D+00     -0.102232D+01     -0.341010D+01
   z          0.000000D+00      0.000000D+00      0.000000D+00

 Dipole polarizability, Alpha (input orientation).
 (esu units = cm**3 , SI units = C**2 m**2 J**-1)
 Alpha(0;0):
               (au)            (10**-24 esu)      (10**-40 SI)
   iso        0.110977D+02      0.164451D+01      0.182977D+01
   aniso      0.257975D+02      0.382279D+01      0.425343D+01
   xx         0.215195D+02      0.318887D+01      0.354809D+01
   yx        -0.109229D+02     -0.161860D+01     -0.180094D+01
   yy         0.104766D+02      0.155248D+01      0.172736D+01
   zx         0.000000D+00      0.000000D+00      0.000000D+00
   zy         0.000000D+00      0.000000D+00      0.000000D+00
   zz         0.129701D+01      0.192197D+00      0.213848D+00

 First dipole hyperpolarizability, Beta (input orientation).
 ||, _|_  parallel and perpendicular components, (z) with respect to z axis,
 vector components x,y,z.  Values do not include the 1/n! factor of 1/2.
 (esu units = statvolt**-1 cm**4 , SI units = C**3 m**3 J**-2)
 Beta(0;0,0):
               (au)            (10**-30 esu)      (10**-50 SI)
   || (z)     0.000000D+00      0.000000D+00      0.000000D+00
   _|_(z)     0.000000D+00      0.000000D+00      0.000000D+00
   x         -0.436635D+02     -0.377219D+00     -0.140001D+00
   y         -0.709967D+02     -0.613356D+00     -0.227641D+00
   z          0.000000D+00      0.000000D+00      0.000000D+00
   ||         0.166698D+02      0.144014D+00      0.534493D-01
   xxx       -0.360545D+02     -0.311483D+00     -0.115604D+00
   xxy       -0.408985D+01     -0.353331D-01     -0.131135D-01
   yxy        0.209169D+02      0.180705D+00      0.670670D-01
   yyy       -0.205240D+02     -0.177311D+00     -0.658072D-01
   xxz        0.000000D+00      0.000000D+00      0.000000D+00
   yxz        0.000000D+00      0.000000D+00      0.000000D+00
   yyz        0.000000D+00      0.000000D+00      0.000000D+00
   zxz        0.583175D+00      0.503818D-02      0.186987D-02
   zyz        0.948240D+00      0.819206D-02      0.304040D-02
   zzz        0.000000D+00      0.000000D+00      0.000000D+00

 ----------------------------------------------------------------------

 Dipole orientation:
     8          0.00040720         -0.00025043         -0.12167130
     8          1.62481954         -0.99927691         -1.20415325
     8         -1.62400514          0.99877604         -1.20415325

 Electric dipole moment (dipole orientation):
 (Debye = 10**-18 statcoulomb cm , SI units = C m)
                  (au)            (Debye)         (10**-30 SI)
   Tot        0.472191D+00      0.120019D+01      0.400340D+01
   x          0.000000D+00      0.000000D+00      0.000000D+00
   y          0.000000D+00      0.000000D+00      0.000000D+00
   z          0.472191D+00      0.120019D+01      0.400340D+01

 Dipole polarizability, Alpha (dipole orientation).
 (esu units = cm**3 , SI units = C**2 m**2 J**-1)
 Alpha(0;0):
               (au)            (10**-24 esu)      (10**-40 SI)
   iso        0.110977D+02      0.164451D+01      0.182977D+01
   aniso      0.257975D+02      0.382279D+01      0.425343D+01
   xx         0.208439D+02      0.308874D+01      0.343669D+01
   yx        -0.120215D+02     -0.178140D+01     -0.198207D+01
   yy         0.869032D+01      0.128777D+01      0.143284D+01
   zx         0.000000D+00      0.000000D+00      0.000000D+00
   zy         0.000000D+00      0.000000D+00      0.000000D+00
   zz         0.375898D+01      0.557023D+00      0.619772D+00

 First dipole hyperpolarizability, Beta (dipole orientation).
 ||, _|_  parallel and perpendicular components, (z) with respect to z axis,
 vector components x,y,z.  Values do not include the 1/n! factor of 1/2.
 (esu units = statvolt**-1 cm**4 , SI units = C**3 m**3 J**-2)
 Beta(0;0,0):
               (au)            (10**-30 esu)      (10**-50 SI)
   || (z)     0.166698D+02      0.144014D+00      0.534493D-01
   _|_(z)     0.555659D+01      0.480046D-01      0.178164D-01
   x          0.000000D+00      0.000000D+00      0.000000D+00
   y          0.000000D+00      0.000000D+00      0.000000D+00
   z          0.833489D+02      0.720070D+00      0.267247D+00
   ||         0.166698D+02      0.144014D+00      0.534493D-01
   xxx        0.000000D+00      0.000000D+00      0.000000D+00
   xxy        0.000000D+00      0.000000D+00      0.000000D+00
   yxy        0.000000D+00      0.000000D+00      0.000000D+00
   yyy        0.000000D+00      0.000000D+00      0.000000D+00
   xxz        0.229209D+02      0.198018D+00      0.734925D-01
   yxz       -0.147811D+02     -0.127698D+00     -0.473937D-01
   yyz        0.797730D+01      0.689177D-01      0.255781D-01
   zxz        0.000000D+00      0.000000D+00      0.000000D+00
   zyz        0.000000D+00      0.000000D+00      0.000000D+00
   zzz       -0.311519D+01     -0.269128D-01     -0.998841D-02

 ----------------------------------------------------------------------
 1\1\GINC-USER-VIVOBOOK-15-ASUS-LAPTOP-X507UF\Freq\RAM1\ZDO\O3\USER\14-
 Mar-2021\0\\#N Geom=AllCheck Guess=TCheck SCRF=Check GenChk RAM1/ZDO F
 req\\Title\\0,1\O,0.0339448667,0.0547112965,0.\O,1.1936295291,0.013982
 2581,0.\O,-0.5255744556,1.071306348,0.\\Version=ES64L-G16RevA.03\State
 =1-A1\HF=0.0600709\RMSD=6.456e-12\RMSF=7.445e-06\ZeroPoint=0.0098355\T
 hermal=0.0127219\Dipole=-0.2473641,-0.4022128,0.\DipoleDeriv=1.9932118
 ,-0.8884894,0.,-0.8884894,1.0949603,0.,0.,0.,0.4362112,-1.1225101,0.83
 65065,0.,-0.0753048,-0.421576,0.,0.,0.,-0.2181056,-0.8707017,0.0519827
 ,0.,0.9637941,-0.6733844,0.,0.,0.,-0.2181056\Polar=21.5195313,-10.9228
 81,10.4766368,0.,0.,1.2970111\HyperPolar=-36.0545449,-4.0898501,20.916
 8537,-20.5239644,0.,0.,0.,0.5831754,0.9482404,0.\PG=C02V [C2(O1),SGV(O
 2)]\NImag=0\\0.94313553,-0.16971171,0.77155914,0.,0.,0.00001632,-0.759
 40591,-0.08587462,0.,1.00468696,-0.03541428,-0.09794102,0.,-0.14089499
 ,0.13946791,0.,0.,-0.00000877,0.,0.,0.00000302,-0.18372934,0.25558658,
 0.,-0.24528105,0.17630924,0.,0.42901012,0.20512624,-0.67361758,0.,0.22
 676953,-0.04152728,0.,-0.43189599,0.71514474,0.,0.,-0.00000877,0.,0.,0
 .00000637,0.,0.,0.00000302\\-0.00000926,-0.00001505,0.,0.00000130,0.00
 000957,0.,0.00000795,0.00000548,0.\\-0.06754842,0.11895533,0.05271391,
 0.,0.,0.07563240,0.01266485,-0.07242977,0.,0.08329709,-0.06786670,-0.0
 0524764,0.,0.00073768,0.03103632,0.,0.,-0.03781441,0.,0.,0.00391898,0.
 05488347,-0.04652545,0.,-0.09596186,0.06712873,0.,0.04107842,-0.051088
 52,-0.04746626,0.,0.07169230,-0.02578871,0.,-0.02060360,0.07325500,0.,
 0.,-0.03781441,0.,0.,0.03389364,0.,0.,0.00391898,0.48097077,0.24312768
 ,-0.48097077,0.,0.,0.,-0.56323348,0.01215731,0.,0.57540298,0.01215112,
 0.05292831,0.,-0.00600472,-0.06510471,0.,0.,0.08850391,0.,0.,-0.088507
 60,0.08225972,-0.25528032,0.,-0.01216989,-0.00615180,0.,-0.07008642,-0
 .25528651,0.42804545,0.,-0.00615180,0.01216989,0.,0.26143904,-0.440211
 84,0.,0.,-0.08850391,0.,0.,0.,0.,0.,0.08850760,-0.49424377,0.26629766,
 -0.22502021,0.,0.,0.20690301,0.43503332,-0.04175003,0.,-0.57911362,-0.
 03457162,-0.07540097,0.,0.14307133,0.03738342,0.,0.,-0.10345248,0.,0.,
 0.11480194,0.05921077,-0.22454754,0.,0.14408032,-0.10849978,0.,-0.2032
 9142,-0.23172595,0.30042158,0.,-0.10132113,0.03801718,0.,0.33304707,-0
 .33843877,0.,0.,-0.10345248,0.,0.,-0.01134847,0.,0.,0.11480194,-0.0856
 9566,0.02755238,-0.05784055,0.,0.,-0.01090267,0.08289851,0.00074800,0.
 ,-0.07482607,0.01218961,-0.01113145,0.,-0.01399643,0.01159499,0.,0.,0.
 00545119,0.,0.,-0.00886876,0.00279661,-0.02830139,0.,-0.00807275,0.001
 80815,0.,0.00527697,-0.03974300,0.06897045,0.,0.01324754,-0.00046219,0
 .,0.02649515,-0.06850805,0.,0.,0.00545119,0.,0.,0.00341772,0.,0.,-0.00
 886876,-0.23239065,0.08918207,-0.14222871,0.,0.,-0.17358430,0.09368134
 ,-0.05944582,0.,-0.10102241,-0.05221101,0.09351171,0.,0.06080410,-0.09
 640973,0.,0.,0.08679043,0.,0.,-0.09207905,0.13850103,-0.02955494,0.,0.
 00767909,-0.00863024,0.,-0.14630987,-0.03678974,0.04869202,0.,-0.00126
 599,0.00267661,0.,0.03791157,-0.05112226,0.,0.,0.08679043,0.,0.,0.0052
 9034,0.,0.,-0.09207905,-0.09280360,-0.08048407,-0.17417198,0.,0.,-0.13
 697266,0.07675119,0.05991032,0.,-0.04274461,0.05125627,0.05673642,0.,-
 0.08453039,-0.05199632,0.,0.,0.06848551,0.,0.,-0.08070583,0.01605239,0
 .02057342,0.,-0.03400604,0.03327495,0.,0.01795312,0.02922746,0.1174352
 1,0.,0.02462011,-0.00474045,0.,-0.05384807,-0.11269405,0.,0.,0.0684855
 1,0.,0.,0.01222114,0.,0.,-0.08070583\\@


 TO ERR IS HUMAN - AND TO BLAME IT ON A COMPUTER IS EVEN MORE SO.
 Job cpu time:       0 days  0 hours  0 minutes  5.8 seconds.
 Elapsed time:       0 days  0 hours  0 minutes  5.3 seconds.
 File lengths (MBytes):  RWF=     44 Int=      0 D2E=      0 Chk=     38 Scr=      1
 Normal termination of Gaussian 16 at Sun Mar 14 13:58:41 2021.
